 variables= "x"
 zone i=           3  datapacking=point
  0.000000000000000E+000  0.000000000000000E+000
   1.55026952148161       0.000000000000000E+000
 -0.620151083346718       0.000000000000000E+000
