 variables= "x","y","f"
 zone i=          12  datapacking=point
   150.726662903891        40.0962643898490        18.6148064733858     
   150.148425794216        39.4156002769764        19.0091892392467     
   149.717323412982        40.2438551776485        18.6715722979855     
   149.429602073994        39.3489708445094        19.1329750180549     
   150.322057660990        39.9029837577952        18.7553183040562     
   149.823108320795        40.6980172889609        18.4501740543850     
   149.981547665011        40.3265756299686        18.6004455203117     
   150.121605940388        39.6316129504148        18.9089569422737     
   150.581040208436        40.3938576277656        18.4955350392520     
   149.542783255998        39.8151498733474        18.8946437639025     
   150.433183588752        39.5989214071714        18.8853709243532     
   149.266576204223        40.5720904172929        18.5764433056552     
