 VARIABLES = "X" "Y" "RO" "U" "V" "P" "M"
 ZONE T="  0.000000000000000E+000 " N=        9944  E=       19548
 ZONETYPE=FETRIANGLE DATAPACKING=BLOCK
 VARLOCATION=([3-7]=CELLCENTERED)
  -19.9782054645671       -16.7460447536127       -13.5432470514743       -10.4462771124608       -7.39483127129757       -4.39431260318683       -1.43672854734527        1.47853524247441        4.40194279230921        7.38347804238703        10.4122197804982        13.5308676756442        16.7310607632789        20.0189460056259        20.0156650185539        20.0123451374732     
   20.0090067226427        20.0056742799471        20.0022854763303        19.9988742323503        19.9954939648514        19.9920871178897        19.9886881104951        19.9853470049941        19.9820070605281        19.9783478910574        16.7317203104092        13.4557822172063        10.1645634122701        6.87452312340184        3.53259687976399       0.170578499054329     
  -3.16443525887912       -6.48474521199279       -9.79114624567630       -13.0836966857758       -16.3754018560739       -20.0188035791356       -20.0155069002833       -20.0121812769038       -20.0088400757232       -20.0054989473046       -20.0021446450312       -19.9987763328347       -19.9953939522161       -19.9920253568386       -19.9886729196427       -19.9853365630757     
  -19.9819979716434       0.997214441211509       0.995689696265832       0.994169273443701       0.992659032606797       0.991103874277537       0.989487363764619       0.987804616772273       0.986060126866725       0.984253767962043       0.982383189784802       0.980434299747411       0.978415679487143       0.976311035364185       0.974133114784738       0.971878032836889     
  0.969538331601969       0.967111440844267       0.964596531952112       0.961991271734548       0.959296024917243       0.956505782957237       0.953612690850445       0.950605565882203       0.947474936149263       0.944249718103799       0.940908107854991       0.937417331040028       0.933820054262315       0.930104087707759       0.926247829946226       0.922216138277300     
  0.918039858212112       0.913713702192547       0.909223690655552       0.904560784428823       0.899718484197083       0.894690211660039       0.889463291648784       0.884024864681572       0.878367197877447       0.872482452535987       0.866371751463590       0.860027794326044       0.853442558530068       0.846605944363643       0.839509014839144       0.832143217475042     
  0.824502127597247       0.816577267919702       0.808360335106125       0.799842921780958       0.791016173663319       0.781872453401344       0.772402883262453       0.762482666070399       0.752201403561568       0.741547773688470       0.730511239400624       0.719084975386391       0.707256799553555       0.695014289981232       0.682350477114080       0.669253904173890     
  0.655710993886517       0.641714772706397       0.627252182280240       0.612307008622828       0.596868688809826       0.580917165293715       0.564440629961214       0.547424334889004       0.530459716295896       0.513464642828269       0.496407071770700       0.479287385139514       0.462105494789649       0.444211910998761       0.426923388361259       0.410237758115210     
  0.394152710655560       0.378651705179964       0.363649625744103       0.349127689851362       0.335081393276811       0.321519099809426       0.308425405714534       0.295800924859738       0.283646158763002       0.271942476097036       0.260664553745888       0.249764812871039       0.239230391042084       0.229048669338915       0.219212143892924       0.209712489263175     
  0.200537835142167       0.191676764758512       0.183124457441948       0.174864553454423       0.166887220539487       0.159175396796080       0.151722114706487       0.144520854368046       0.137565393225073       0.130849403561516       0.124365892844349       0.118109186828372       0.112073974829904       0.106254855556106       0.100647195544165       9.524652653929438E-002
  9.004857126255270E-002  8.504974782565163E-002  8.024623633913659E-002  7.563419263170956E-002  7.129005664212690E-002  6.710866001943966E-002  6.309151885724969E-002  5.923679898930241E-002  5.554449781919856E-002  5.199295196463266E-002  4.859343779839315E-002  4.534378639558095E-002  4.222659388716872E-002  3.921335200754658E-002  3.630102184093513E-002  3.346742845349591E-002
  3.071299550776959E-002  2.804274463888581E-002  2.545953755782801E-002  2.296733988661657E-002  2.057221234087875E-002  1.828167670886924E-002  1.620965111727566E-002  1.421986051570511E-002  1.233148389364286E-002  1.056282759899859E-002  8.937588499355793E-003  7.394944933373301E-003  5.902317818551382E-003  4.557788814710863E-003  3.355149283774516E-003  2.332504354629488E-003
  1.547878762202544E-003  1.062288070233525E-003  8.784732612340211E-004  9.285195961635795E-004  1.320040360548571E-003  2.062277752582791E-003  3.104453931034465E-003  4.354788905984054E-003  5.743181648764521E-003  7.216646363675647E-003  8.983378959112442E-003  1.083045150915722E-002  1.277558454735374E-002  1.473140253208120E-002  1.672966602801517E-002  1.882010889163969E-002
  2.105463164232477E-002  2.339894362664293E-002  2.586319376234269E-002  2.838697833066885E-002  3.097819892754555E-002  3.368160027950216E-002  3.653722217012888E-002  3.954241408119346E-002  4.268653516401719E-002  4.595744339543174E-002  4.934419820548930E-002  5.283486758733240E-002  5.642606296219826E-002  6.011767925333254E-002  6.390236568287604E-002  6.814234731839899E-002
  7.252600833381412E-002  7.705075343117310E-002  8.171343668612879E-002  8.644515120839733E-002  9.131535477841461E-002  9.635037857286689E-002  0.101548098081844       0.106910584541266       0.112428072892111       0.118120004509717       0.124027360142522       0.130199800139314       0.136650222882370       0.143381701216956       0.150390648216097       0.157678196876274     
  0.165247358252379       0.173099074575005       0.181237224350978       0.189665218694213       0.198387439746265       0.207588483353575       0.217126933986352       0.227008449333934       0.237242006572541       0.247835798018016       0.258796893100658       0.270135579442804       0.281862552545009       0.293985291202989       0.306514574301488       0.319462692042550     
  0.332837147373173       0.346647875035395       0.360908312656754       0.375618865572870       0.390790269272217       0.406428744368553       0.422520068993913       0.439074729893677       0.456035894426792       0.473395596288302       0.490829995559761       0.508133870388821       0.525305725246560       0.542348106778890       0.559264830379865       0.575740003608624     
  0.591750236267989       0.607275973031149       0.622316120774217       0.636872696031533       0.650909969903359       0.664439184806308       0.677475433720243       0.690036414502173       0.702142197676368       0.713843694657964       0.725182334113445       0.736166018043041       0.746802900392797       0.757095085736764       0.767050863250283       0.776678939959057     
  0.785988018470215       0.794900730749604       0.803485657875595       0.811747607212329       0.819692459033140       0.827324868401894       0.834649190221108       0.841672669589084       0.848457435388135       0.855033193069485       0.861403060843752       0.867570848103340       0.873540446419243       0.879315867314692       0.884900425402350       0.890297254243966     
  0.895509818962073       0.900542475882080       0.905402926810190       0.910095710163735       0.914625316954043       0.918804239003166       0.922868134711659       0.926815153551906       0.930648166204381       0.934352379443151       0.937924828273103       0.941371825930552       0.944685702715030       0.947870052369664       0.950940086853255       0.953871959258745     
  0.956672279681558       0.959396929910628       0.962042894070689       0.964608360681182       0.967092100194271       0.969493552463891       0.971813895648354       0.974054178560935       0.976217698825308       0.978308337087813       0.980278429409020       0.982194481571836       0.984041990079813       0.985825670014165       0.987549461228952       0.989214661610697     
  0.990816888551730       0.992357416202053       0.993838747507940       0.995316156477288      -3.575964321858173E-004 -2.576467206270132E-004 -1.992260419530843E-004  0.993438488151580       0.994885166491138       0.993427672293511       0.994726489293131      -1.741982066207424E-003  1.001176953210944E-004  0.993177529665434       0.993957701267316      -1.489152834297654E-003
  0.992041750235258      -1.722069223929692E-003  0.991645975034023       0.990005789710621       2.792909157732305E-004  0.990313885892867       0.991296958481152      -1.565439803690597E-003 -3.262916815388090E-003  0.992495397295801       0.992664811058737       0.996353352106464      -9.867834385745866E-004  7.387462313275065E-004  0.988556899166879       0.986779997620032     
  0.984999004605177       0.989402084187035       0.995676434043171       0.990993987400346       0.988806798005784       1.186266886428547E-003 -1.081713225462562E-003 -3.281005631667787E-003  0.990291001724661       0.994941012519862       0.997996199217870       0.995594298436470       0.998664901799672      -2.845571740934747E-003  1.649833968341666E-003  0.994088956867141     
  0.994390176881108       0.996968372603029       0.987089499127437       0.987566177203237       0.985708831032236       0.983788663622944       0.988533944355105       0.990311047988815       2.385141158932773E-003  3.385983024327955E-004  5.222331314690835E-003  0.999784912137393       0.988081373937151      -4.674352619422130E-003  2.803750271127105E-003  0.988403381390388     
  0.985225342861041       0.986607896636495       3.725681318609182E-003 -3.245130901763004E-003  0.989145307165965       0.997377144879259       0.996884911883064       4.167961434949416E-003  0.986567531425417      -2.190843221318018E-003 -3.187936402815113E-003   1.00068727723969       0.998772965142731       0.992308245797568       0.996457494208832       0.998538178131354     
  0.991195609451332       7.313485865199397E-003 -1.458449279139007E-003  0.997143314682833       0.996315445576603       5.704176434590450E-003  0.983279465539245       0.981313185890474       0.989482569864555       0.995574236493264       0.984525248497427      -5.078928690303356E-003  0.985923735088770       8.907971555378293E-003 -1.948695524367588E-004  8.806371178054948E-004
 -4.823211833114444E-003  0.981685611547571        1.00098093371303       0.984574301069434       0.982359425937359       0.995273663532497       0.993235155100936      -1.221549920324049E-003   1.00156370410051        1.00344997977788       0.999277047654653       0.982398573158298       0.980170300973803       0.998425128363732       0.991773870079222       0.983750698561414     
 -4.335890195068186E-003  5.635605640945602E-003  3.041086870180254E-003  7.325017723516690E-003 -6.637646700668406E-003 -5.926031153538772E-004  5.379569742907888E-005  1.598184012274522E-003  2.224916137265581E-003  0.992182697164189        1.00015930816455       0.993195186618674       0.985704231611099       0.989999276654172       0.979294604570475       0.977126951247806     
  0.980126187854791       3.824065772261597E-003 -4.941866950867308E-003 -6.758897167095763E-003  0.974966468521990       0.987326955955994       6.901371483976831E-003  0.983421348861610       0.988529114905638       0.991137637368026       0.997947496154832       0.997190676144582       4.689952585486869E-003   1.00289639145808        1.00185616977621       0.994033734011850     
  0.995990218456326       6.102304376233711E-003  0.997494704639593       0.999804653807099       1.059719198676378E-002   1.00047959994329        1.00438386755158        1.00215798562002        1.00475994202862       0.987517950209681       0.990813184578769       0.986658446945415       1.639345783867577E-003  8.751101160157074E-003  0.987466597005763       0.983338722785822     
  0.980668904803875       8.660369587969488E-003 -5.197768122505017E-003 -2.834258574701237E-003 -2.322548542429450E-003 -3.494173220990212E-003  0.988798732546258       0.989914667911795       0.977997340526015       0.975792493443066       0.973400331868491       1.271838942084620E-002  0.989654728525341       0.993472177465205       0.992439923954937       0.994677601201805     
  6.531004553833800E-003  1.472689731156833E-002  0.985272060083516       0.984973151065444        1.00073206939587       0.986734809305551       1.070988973378010E-002  0.984769170606740      -3.148873366208707E-003 -7.204292672827818E-003  0.978793602536779       0.977798944088282       1.249262841156118E-002  0.979569834798619       0.975330324178572      -5.115154826180256E-003
  0.983044164698624      -6.918923799832555E-003  1.058602199286869E-002  0.992175986364872      -1.835286457199776E-003  3.584692031342879E-003  0.973066487821278       1.271116249956785E-002  6.991831989728568E-004  2.291881802408144E-003  1.677668135437800E-002 -8.342076258365167E-004  8.530831243261462E-003  0.976437560253093      -5.935108891103769E-003 -8.598193952090936E-003
  1.063087453293863E-002   1.00307855224794        1.00597806499651       0.976885349756972       0.974420590944742       0.971285555215376       0.981989999930493       0.979836909798551       0.991159782725737      -3.149719320140452E-004  1.467814789647527E-002 -9.140929500953299E-003  0.974422547676787       0.972075387633455       1.451479674176276E-002  6.154853348353163E-003
  8.377121543724778E-003  1.276215022987889E-002  0.970730323974635       0.968363766047912      -7.339306142951451E-003 -9.545728401945607E-003  1.478566727558614E-003  1.267805021072629E-002  0.981394623006020       0.978593797270416       0.980475440764195       0.977869698181132       0.978335524259277       0.977884277181713        1.00643084964569        1.00317816278339     
 -4.819529011805854E-003  1.001393078227196E-003  0.999720043307701       0.998973648189951       0.982470787774506        1.00175217453682        1.00139443723811       0.969599221397192       1.663292390083450E-002  0.979533912695164       0.980918982090974       1.067270483917859E-002  0.996269014801194       0.987201056060855       0.967041839021823      -3.493427798378778E-003
 -4.864688959889022E-003  0.983021612885684       0.993631134468215       1.483263861194370E-002  0.977199775412534       4.120101924706096E-003  1.895457711593393E-002  1.674101581048782E-002  0.970917827351737        1.00539506120255       0.976043478263914       0.998840287763366       0.997760835029472       0.976051226214402       0.995038938643629       1.293891591098683E-002
 -3.150081579768546E-003 -7.297489315815346E-003 -1.400803410665848E-003 -9.270726383082023E-003 -9.117583291390324E-003  3.287721646370572E-003  0.973057593957068       0.973623425502070       0.971063755350884       1.102893186939776E-002   1.00703912238845       0.968206299746525       0.965725943453533       8.366714818327479E-003  0.969101585977257       0.963224133804866     
  0.960974365467914       8.411189622722387E-003 -7.561524261509183E-003 -1.044036392995230E-002 -1.835842663413383E-003  2.127837566403537E-002  1.904155714308461E-002  0.993908947981943        1.00056630934383      -1.114664210053730E-002  0.980379953426987       0.977185840890201       6.011211214796226E-004 -6.075744266175305E-003  1.662218045483742E-002  0.999470824596266     
 -9.630284974880898E-003 -1.202637968530734E-002  0.975399144827921       0.974926562254721       1.070220084977472E-002  1.133637355708304E-002  0.985258799771170        1.00850678528960       0.988146947835763       1.513173783701079E-002  3.520878711758452E-003  0.966882488165326       0.964376764134557       0.961727914985724       0.958649760672371       1.706193399625142E-002
  1.648880398398309E-004  0.968377201564211       1.328058681019900E-002  1.886816179580492E-002 -1.158987197346216E-002  0.991032637617418       0.992436499662658       0.995166673790874       8.321625231339790E-003 -6.265153554387222E-003   1.00370140758071        1.00365688605146       0.965557119310777      -4.464163287488516E-003 -4.746383996915961E-003  5.799775143694270E-003
  0.968272632061333       1.212944847294135E-002  0.996677279212837       0.998367112719364       2.370391502688681E-002  2.149934948695101E-002  1.912234353340517E-002 -2.580118667572841E-003  2.121147284100854E-002  0.972788011623713       0.969986976943245      -1.394379572211452E-002  0.985640059843853      -9.501945562256274E-003   1.00815585649115       1.516909023835425E-002
  8.774022678702396E-003  1.941068091627213E-002   1.00228449294623       0.965683983276813       0.963093045859056       0.993814232395719       0.960109783493654       2.613769814055888E-002  5.832031052157030E-003  2.402863592721101E-002   1.00629714247901       8.214784828686462E-003  5.460700581751956E-003  5.158448964629045E-003  1.743779442188387E-002  3.040149245983269E-003
 -7.637811452631081E-003  0.988129558313604       0.983161555818292       0.981158027650714       0.983562271070701       0.985593533874803       0.992596617983293       1.651127879487579E-002 -3.668533459739000E-004  0.964167847798370       1.998959545092182E-002  0.966963967060020       0.988454006497357       0.987471859048751       0.985112575302450       0.982892676693425     
  0.985793586893997       0.986728392456891      -1.176169977745994E-002 -3.075312915493211E-003  0.997979985320769       0.982293711894702       0.966248362181733       0.995543556410427       0.994315819209375       2.852404807789938E-002   1.00582751865408        1.00406656052307        1.00758307973718        1.00926977921035      -1.201913709470702E-002 -1.467281796693750E-002
 -7.337966539584659E-003  2.179463735731553E-002  1.923663047814212E-002  1.643879879638742E-002 -8.932593566234947E-003  0.988460278584528        1.00663777706692       5.794538959018394E-003  0.978311122010466      -5.902799450934129E-003  0.990116564896687       0.990826578491858       0.991988922527313       2.898334398658738E-003  0.969829496311322       1.434855719369345E-002
  1.392688735524101E-002  0.978777959681436       0.968204143500620       0.956776233961242       0.961061656510805       0.958201303882023        1.00186293512925       0.962691974003227       0.965298365822388       0.971198951391317       0.969512298473226       0.973195411372504       0.974109172127162       0.972485967440895       0.970844030714002       0.955242962820370     
  0.951990763472346      -3.944272377369135E-003 -1.173538064650530E-002   1.00975620717213        1.01095483040705       0.979987875502050       0.977409500121638       6.116941350036102E-003  4.954614421131725E-004  2.290787004123878E-003  1.993977953902198E-003 -6.036959854390614E-003   1.00902288018312        1.00470595861672      -9.193324828479552E-003  3.113509726623901E-002
  2.822812569301105E-002 -1.442912993441840E-002  1.098872254348625E-002 -1.446326724870552E-002 -1.743609481195733E-002  0.989616429325821       0.987704698911839      -1.174988962085789E-002 -1.447606588918720E-002  2.593849976549667E-002   1.00869067211134       1.368487723529974E-002  0.984087418584796       0.984674004197289        1.00079288633001        1.00676516167664     
   1.00963380972115       0.985292414696743       0.959883913266697       0.956961210047444       0.953756930992082       0.950253963077200      -1.500842032293824E-003  0.975756976779917       0.982517090400509       0.981933044432278       0.980216168487807        1.00683096641897       0.975076807360674      -1.115413677029791E-002  0.981683425340392       0.964618681233673     
  0.966538498794463       0.967890452505192       0.969063840012709        1.00874333267327        1.00930390924779      -7.513887126343405E-003 -1.730890004700537E-002  0.961466584731263       0.971788705169316       0.968885705569151       7.979100827579627E-003   1.00491986970856      -4.211641527177133E-003 -7.674322062583340E-003   1.00952326900987        1.00193200306361     
  0.999837640447432        1.01057119508195       2.468448235647473E-002  2.852276880047145E-002  2.588894686044877E-002 -9.097177329712533E-003  2.182871653469239E-002  2.357919273139629E-002  2.271181489956155E-002  0.976028917433849       0.974279803092119       4.941048122986914E-003  2.656847133861899E-003  0.996860968589876       9.184326976135797E-003   1.01161700710053     
  0.958951238262458       0.985496816093807       0.991000235993864       0.992848083104818       0.955191136031454      -1.085684385980061E-002 -1.462267859841147E-002  0.962116413142596       0.977803693238802      -1.417549652269405E-002  0.979167024736262       0.982369455744579       0.988709608155311        1.00412345354235       0.970889099918686       0.967084679291565     
  0.964043827556119       0.961776286700009       0.965716027652211        1.01101203058053      -7.318844865988645E-003 -1.066927324915519E-002  1.347197096576239E-002  2.631643120988399E-002  2.219059888894977E-002  1.936369062377301E-002  3.393314050927684E-002  3.144574753428834E-002  2.995972218774041E-002   1.00278679107963       1.635499507695222E-002 -1.682457286072288E-003
 -1.736956091555929E-003   1.01185719685233        1.01416140307608      -1.425062106233154E-002  0.952063832275478       0.948928480285037       3.135959187439701E-002  2.913578106717143E-002  2.693839933802331E-002 -1.225601412290577E-002   1.01149250726111        1.01519099634937       0.973309833287080       0.967901847437073      -5.328594971178267E-003  1.073028241948391E-002
  6.427825656471077E-003 -1.753879035399105E-002   1.01179481540984        1.01290107508348       2.400870856188175E-002  2.067333973882012E-002  0.963428324028888       0.964952793974893       0.966452592223684       0.966635610949771       0.995590493836132        1.00328544337139        1.00601734934431        1.00184431668244      -9.322636012956891E-003 -1.193664437600220E-002
 -1.410242294644186E-002  0.945723507700581      -1.056435190488783E-002 -1.393478010283792E-002  0.973217009067713       0.953560759430642        1.00668442352009        1.00952457750336       0.978707261645516      -1.371966020597640E-002  0.988848341087594      -1.717636653081104E-002 -2.042277565701369E-002  3.419751443345204E-002  3.207181789250218E-002  2.998306928857901E-002
  2.805157455659496E-002  0.970292182048047       0.973079627424589       0.998775280438913       0.997545186139068       2.557476501680142E-002   1.00495688575058       1.779175476625676E-003  7.786918015296454E-003  4.904069092738796E-003  0.964641819760843       0.967010455051194       0.976220999886599       2.375788626403585E-002  1.779429412882681E-002  1.519244552582706E-002
  0.997389755737002       0.999934739268006       0.996463436957187        1.00373384331638        1.01228994113479        1.01248538187659       1.231835153073734E-002   1.00119915601804       3.687667029924348E-002  3.393629414015153E-002  0.950491226312759       0.947213658361130        1.00302687063108       0.943622159007239       3.705563687764973E-002  3.487717392740623E-002
  3.280925668192270E-002   1.00679181253358       0.958340025818056       0.954830265717463       1.825024711935767E-002  0.959980254231408       0.982542389880773       0.974541252532612      -1.628108666439209E-002  0.963553655121452       2.254409125772971E-002  1.946174750552915E-002  0.961696459444839       0.963697364316756       1.647995126558472E-003 -5.721597510292903E-003
 -1.283848568215678E-002  9.380764065628471E-003  0.961858071157167       0.959669956434826       0.965964461116360      -1.684407980931296E-002  1.043389755518325E-002  0.952017317341956       1.623688832426539E-002  2.144740650932113E-002  2.476403726205122E-002 -1.206645371711231E-002 -1.497905713632248E-002 -1.337415717368572E-002 -1.678770209645299E-002 -1.659389939772942E-002
  0.952033070146001       0.956234451020077      -2.079954498030138E-002  4.001264982821218E-002  3.767123793737574E-002  3.538059116692585E-002  3.363036801992691E-002  6.387614599816843E-003   1.01014529232784        1.01470073612241        1.01665908475434        1.00749440831276        1.01440605240139       0.969689868138675       0.973071022105456       0.958041625938364     
 -7.599615802507892E-004  4.006113932839661E-002  3.723999065657414E-002  3.415330225725226E-002  0.949148047269969       0.945353663896571       2.598552647685542E-002  0.994532134133625       3.957685240911895E-003  3.605949144819466E-003 -1.758016815130450E-002 -1.552035021055594E-002 -1.743604688360976E-002  0.960033773939366       0.956113366567208       0.975662483805206     
  7.688355274683405E-003  5.541117966918832E-003  1.257403633643324E-002  1.317324714443545E-002  0.940771935777256       0.946717862317962      -1.732354744662578E-002 -1.717172731107918E-002 -1.663473485255014E-002 -2.044833959539909E-002  0.962357136218868       4.312387972322536E-002  4.072886418179940E-002  3.786194884025941E-002  1.884418844741340E-002  0.952343228302221     
  0.955734797953722       0.957888949316757       0.948836693203375       0.954482255242978       0.950954428957719       0.947373215266615       9.758580254515111E-003 -1.220036368039904E-002  0.995573907917848       0.971876583377719       0.970657802857739      -1.993922763913700E-002 -1.982276362975586E-002  0.968710158029977       1.551825810900499E-002  1.098522616971093E-003
  0.979329413182272       0.982363434686299       1.596163480923200E-002  2.279910098685881E-002  1.954912611844465E-002  1.613125721406666E-002  4.334769184739067E-002  4.065379720666977E-002  0.976675942185365       0.971516562430086       9.482425577408516E-003  6.225389200068039E-003  0.943299403597709       0.939831364586608       5.843767696650346E-004  1.278092088774993E-002
   1.01185930836170       0.958233798173156       0.954085182681184      -1.897091270577013E-002 -2.125981701188273E-002  0.936265447996783       0.932649101404321       2.233682759889869E-002  0.945332278952396       3.774029165883977E-002  3.449650595753715E-002  2.602198783645063E-002  4.636229162780046E-002  4.402844101197319E-002  4.163219270095799E-002  3.960575794496732E-002
  1.194476904460246E-003  0.985548022436660       0.988768522473142       0.953170016458974       3.305368972125313E-003 -2.212552667863775E-003   1.01196532970369       2.631675242836580E-002  4.667541513671463E-002  4.402648379901695E-002  4.146516930731984E-002  1.954710552002882E-002  8.933302460082573E-003  1.285919071006484E-002  0.941849849962948       0.938291078250909     
  0.939794142392030       0.985525473770114       0.991941299241860       0.992026518235036       0.942860626472027      -2.541592552370766E-003  0.956745316695292       0.949457055468381       0.945717555208785       0.986230674766458       0.989927423569203       0.935675911309114        1.00852958775302       0.988790306687721       0.931855933164481       0.954112165536606     
  0.952087587651539       0.949928223378376       0.969197254813456       0.943885902817591       0.955599937645015       9.558476225449072E-003  6.002497400152126E-003   1.01422558353177        1.01278134448054        1.01420594606305        1.01644951495137       4.291877979581231E-004 -1.803956740076343E-003  1.244216406950099E-002  5.007947350469579E-002  4.727213509290712E-002
  4.468875883221313E-002  4.317434783093028E-002  0.947724479625938       0.943587996904386       0.927827304000719       2.307473945761791E-002  1.968809258754535E-002  2.885017453144034E-002  0.987167733227526       0.975872131967816       0.979762642328634       0.983508042364307       0.972574384835811       0.972559512482231       4.970675991458388E-002  4.733867519128328E-002
  4.493288533201322E-002  4.261021862774242E-002  3.960413573191541E-002  0.951703797046708       0.954092389415343       1.613070053504878E-002  1.646923522803914E-002  0.959596134306429       0.990848992957878       0.962109325570497       0.958120643476088       0.964651776698134       0.937300817541036       0.995741430119142       0.998745819280248       0.992177733151712     
  0.940466741918136       0.936807320158343       0.999814322127407       0.946083324498043       1.317476807483561E-002   1.01544795523997       3.048752861070603E-002  2.690744446299247E-003  0.934570942675740       0.950048550695037       0.998264349025323        1.00096827958469        1.00409914212198       0.964939223278135       0.942184945195418       0.947755553971981     
  0.943233877892823       8.379737374927089E-003  5.363814463859296E-002  5.068297728899350E-002  4.744239645297266E-002 -7.851034242535200E-003 -1.099000094228730E-002 -1.442207405092094E-002 -4.058164449627112E-003 -6.431943123303942E-003 -2.037288560783597E-003  0.985403225785304       0.977021209105442       0.997076284979829       0.942552182894301       0.933876436789277     
  0.929835917339348       2.685487436394055E-002  3.083266134632238E-002  2.339319708174084E-002  0.994852423021297       0.996206430201403       0.988771093598657        1.01569991348759        1.01784473373969       0.987978416471719       0.993527284701365       0.994643950271727       0.991762063779000       0.982191294373374       0.960563126323719       9.659283402194187E-003
  5.870787886526719E-003  0.932795308036953       0.948125789531083       0.945779486063275       3.085500165392611E-002  2.978016140995595E-002  2.783428822310822E-002  0.939327337902648       0.944706278659526       0.941271852757934       5.317845036954936E-002  5.073640351459567E-002  4.820705652874265E-002  0.980834573519413       0.984397109601819       0.984891963905922     