 VARIABLES = "X" "Y" "RO" "U" "V" "P" "M"
 ZONE T="  0.000000000000000E+000 " N=        9944  E=       19548
 ZONETYPE=FETRIANGLE DATAPACKING=BLOCK
 VARLOCATION=([3-7]=CELLCENTERED)
  -19.9782054645671       -16.7460447536127       -13.5432470514743       -10.4462771124608       -7.39483127129757       -4.39431260318683       -1.43672854734527        1.47853524247441        4.40194279230921        7.38347804238703        10.4122197804982        13.5308676756442        16.7310607632789        20.0189460056259        20.0156650185539        20.0123451374732     
   20.0090067226427        20.0056742799471        20.0022854763303        19.9988742323503        19.9954939648514        19.9920871178897        19.9886881104951        19.9853470049941        19.9820070605281        19.9783478910574        16.7317203104092        13.4557822172063        10.1645634122701        6.87452312340184        3.53259687976399       0.170578499054329     
  -3.16443525887912       -6.48474521199279       -9.79114624567630       -13.0836966857758       -16.3754018560739       -20.0188035791356       -20.0155069002833       -20.0121812769038       -20.0088400757232       -20.0054989473046       -20.0021446450312       -19.9987763328347       -19.9953939522161       -19.9920253568386       -19.9886729196427       -19.9853365630757     
  -19.9819979716434        1.00000000000000       0.998488255820266       0.996980761990898       0.995483329153391       0.993941324034136       0.992338447340855       0.990669851487089       0.988939987601710       0.987148726030035       0.985293731280350       0.983361022475878       0.981359103898203       0.979271810071490       0.977111776302216       0.974875142779336     
  0.972554505046090       0.970147305536276       0.967652713673155       0.965068406012352       0.962394734888535       0.959626721880333       0.956756563571936       0.953773153448946       0.950667080202325       0.947467020223522       0.944151326588211       0.940687461935368       0.937117746970243       0.933430070086747       0.929602976253138       0.925601565634650     
  0.921456428152238       0.917162293177508       0.912705259923535       0.908076328263423       0.903269016756258       0.898276763137896       0.893086948831136       0.887686767954816       0.882068501124962       0.876224320490923       0.870155295353845       0.863854127361603       0.857312797051588       0.850521217379893       0.843470451532251       0.836151939870060     
  0.828559232143343       0.820683833627305       0.812517416829062       0.804051544851044       0.795277330046253       0.786187087459476       0.776771891548890       0.766907535098275       0.756682976090072       0.746086821855032       0.735108447482167       0.723740906786819       0.711971909476691       0.699788908043541       0.687184761085897       0.674147839869206     
  0.660664378381261       0.646727156123802       0.632322861421316       0.617434999196601       0.602052657447560       0.586155410532738       0.569730989843616       0.552764125717350       0.535844142364804       0.518888906079776       0.501866158189287       0.484775945816628       0.467617814818311       0.449742412396673       0.432464712374615       0.415782854739534     
  0.399694860583434       0.384184530903523       0.369167004658950       0.354623742688590       0.340550503197661       0.326955959507365       0.313824981794808       0.301158507701292       0.288957384871910       0.277203263326691       0.265871050813096       0.254913242850645       0.244317182241807       0.234070445516820       0.224165749017608       0.214594979286176     
  0.205346444050076       0.196408895239085       0.187777730257531       0.179436692086804       0.171376093966928       0.163578924563846       0.156038356065003       0.148748006370722       0.141701787722724       0.134893499007328       0.128316256903956       0.121964506830428       0.115833056946898       0.109916617173764       0.104210672258499       9.871087062384631E-002
  9.341305110887016E-002  8.831375840654887E-002  8.340929271850217E-002  7.869592722358770E-002  7.425210034630272E-002  6.997052484119104E-002  6.585290701830360E-002  6.189753078916227E-002  5.810456641907025E-002  5.445190670123520E-002  5.095128851301739E-002  4.760064728459987E-002  4.438218063529026E-002  4.126650578586719E-002  3.825045867852314E-002  3.531097615773748E-002
  3.244831426029010E-002  2.966748389063895E-002  2.697123431426512E-002  2.436344117047068E-002  2.185015513980412E-002  1.943896086753935E-002  1.725007847420690E-002  1.513973047694223E-002  1.312766596857909E-002  1.123289802714406E-002  9.480553261091373E-003  7.804140008044413E-003  6.165282220451207E-003  4.668249176257772E-003  3.302415150683025E-003  2.104749757294855E-003
  1.135216394704874E-003  4.645045705641837E-004  1.144749000794310E-004  0.000000000000000E+000  1.842679454176765E-004  7.260705322856276E-004  1.579826213981034E-003  2.659219347624892E-003  3.893576537798704E-003  5.228322994096229E-003  6.850891376596918E-003  8.565402277599471E-003  1.038565914210024E-002  1.222761656632856E-002  1.411919181822571E-002  1.610655326146709E-002
  1.823891175108580E-002  2.048354654615422E-002  2.285007437826961E-002  2.528022597569518E-002  2.778121686125878E-002  3.039607841145406E-002  3.316365813055722E-002  3.608159764371921E-002  3.913971990461557E-002  4.232630160082013E-002  4.563071439805355E-002  4.904130124061448E-002  5.255471360215785E-002  5.617081424503034E-002  5.988236467948957E-002  6.404513761431854E-002
  6.835379625456378E-002  7.280585354268249E-002  7.739826872554537E-002  8.206312734475532E-002  8.686886774439606E-002  9.184156643015884E-002  9.697924629780683E-002  0.102284070683571       0.107746482313361       0.113385838308485       0.119242912232928       0.125367202059990       0.131771820356732       0.138460136360071       0.145428890675473       0.152679499162220     
  0.160215238893671       0.168037321202666       0.176149876179156       0.184556565794074       0.193262018432375       0.202450889381161       0.211982387810798       0.221862467419691       0.232100402571604       0.242704687489869       0.253682694584793       0.265045021893535       0.276802682421060       0.288963467231382       0.301538478396521       0.314540339756488     
  0.327976870157526       0.341858328568455       0.356198496369361       0.370998045502651       0.386268027860175       0.402014946835827       0.418224699144158       0.434908044462684       0.452007858781603       0.469516208353419       0.487106383008170       0.504570952907477       0.521907961483277       0.539119573520359       0.556209275450353       0.572857482341719     
  0.589040006177506       0.604736568670243       0.619945595406950       0.634668701510597       0.648869354640367       0.662558561902606       0.675751267503602       0.688465089887837       0.700720084025820       0.712567564472108       0.724049287988847       0.735173090038521       0.745947075625922       0.756373234245050       0.766459830398556       0.776215562784734     
  0.785649135595599       0.794682026197117       0.803383624472688       0.811758703765574       0.819813131169097       0.827551537472418       0.834978254233673       0.842100548728743       0.848981356703445       0.855650750659097       0.862111845280597       0.868368458636267       0.874424494503302       0.880283980625203       0.885950239822267       0.891426413121406     
  0.896715979831467       0.901823325566936       0.906756233429929       0.911519278480122       0.916116989556916       0.920358994020312       0.924484468342013       0.928491515913811       0.932383033444858       0.936143983663937       0.939771336910404       0.943271484924639       0.946636621604070       0.949870378345306       0.952988187015976       0.955965813404375     
  0.958809953952680       0.961577352542665       0.964264937165007       0.966870858916475       0.969393859949400       0.971833362459408       0.974190554720452       0.976466493990152       0.978664522608530       0.980788575918958       0.982790219079032       0.984737015057623       0.986614222358805       0.988426626281954       0.990178225075969       0.991870332868976     
  0.993498491553820       0.995063991244664       0.996569371095497       0.998070800285996      -1.198220454855733E-003 -9.404474543992427E-004 -1.206626338181733E-003  0.996260214802548       0.997698003645687       0.996256320358894       0.997453862361358      -2.650364416807664E-003 -4.158204408901474E-004  0.995884401436403       0.996662111705520      -2.098318180723124E-003
  0.994874907324571      -2.486197560348243E-003  0.994332678227446       0.992667134871946      -9.249110528555464E-004  0.993161901534134       0.994142919522244      -2.632765748998795E-003 -4.101756668267315E-003  0.995185381793519       0.995340971119302       0.999098125593763      -1.429686476112885E-003  3.985766482921021E-004  0.991418933886768       0.989655887705639     
  0.987888928886826       0.992261732514019       0.998398876861648       0.993662539748981       0.991441577138742      -2.251726489990891E-004 -2.379104449002378E-003 -4.240116183772056E-003  0.993149137289682       0.997639717964169        1.00074995152566       0.998410043136441        1.00143863912871      -3.383985623776183E-003  1.485858235301181E-003  0.996757038848296     
  0.997221841011243       0.999765594203918       0.989706367789132       0.990438519785447       0.988593991466926       0.986687223805595       0.991174107144539       0.992950883741580       8.023867499894105E-004 -1.142234706364953E-003  3.331532350506775E-003   1.00253687514882       0.990688152770618      -5.566510338232843E-003  2.810869799634055E-003  0.991273494961923     
  0.987811204278554       0.989205994202101       1.984485180384362E-003 -4.363251863908330E-003  0.992014300052522        1.00018458742569       0.999600849123910       4.340066862180784E-003  0.989448351717441      -2.562787574137285E-003 -3.885672066691927E-003   1.00345235240483        1.00150416445414       0.995153396051267       0.999276788830273        1.00134650278687     
  0.994052508849513       7.787577959860496E-003 -2.875628126742259E-003  0.999877368659208       0.999005027814470       6.035624978235947E-003  0.985834743761012       0.983837580073770       0.992093536842582       0.998234324946935       0.987093369725706      -6.079006501548428E-003  0.988502470795711       9.495848494891122E-003 -4.659594697001559E-004  7.815487092189411E-004
 -5.452065820164533E-003  0.984600692362141        1.00371582627982       0.987468735467150       0.985271284645840       0.998108729241691       0.996080645483712      -1.424913114488190E-003   1.00431381867465        1.00618782865276        1.00206756606061       0.984936232267256       0.982676223468052        1.00113161675806       0.994413910889187       0.986301625751526     
 -4.801468386072367E-003  6.045245253961226E-003  1.252921326341280E-003  7.850870303359058E-003 -7.191877351470341E-003 -2.121988404638385E-003  1.921228881503359E-005 -3.535745142547050E-005  2.296183649382369E-003  0.995038616815935        1.00287724498761       0.995832241229924       0.988593071538486       0.992867373656827       0.982231724033330       0.980080626488595     
  0.983058244765051       4.065487372099628E-003 -5.726318327813727E-003 -7.644237078098015E-003  0.977937505127404       0.989911918785247       4.867033846044154E-003  0.986322263762666       0.991116335527216       0.994005662915476        1.00062665179282       0.999841700998253       2.752401565128401E-003   1.00565503273144        1.00463439246073       0.996880495543475     
  0.998830667718722       6.615933173422897E-003   1.00031680780593        1.00261446804520       1.131168355507853E-002   1.00317563518432        1.00715367662362        1.00487453793318        1.00747354088929       0.990399871696306       0.993424886049953       0.989229191922422       1.776022851591188E-003  6.576383286902631E-003  0.990344242816455       0.986246038997698     
  0.983599042079266       9.290425825211002E-003 -6.357322538097490E-003 -4.264925818440200E-003 -2.459258967218420E-003 -3.794756630523395E-003  0.991680067174808       0.992795766963991       0.980943895161367       0.978754726633920       0.976381199962085       1.029218843655291E-002  0.992241322127422       0.996327639709409       0.995308054294665       0.997308728739891     
  4.448552809232335E-003  1.219652236545717E-002  0.987835065482626       0.987523035097057        1.00352934160172       0.989627402935276       8.403359315270321E-003  0.987671224214931      -4.450206435592006E-003 -8.251519508191630E-003  0.981735690160517       0.980267781306308       1.333807471766748E-002  0.982070166502867       0.977758823305755      -6.424090187887436E-003
  0.985576963037061      -7.635721860261117E-003  1.135767702100686E-002  0.994785067917605      -3.413813074478422E-003  3.899614957753088E-003  0.975461160691659       1.024843874088784E-002 -9.841727373010145E-004  4.548440219482952E-004  1.414799070093985E-002 -8.055583941933009E-004  6.308937774594535E-003  0.978877007768077      -6.323483467062685E-003 -9.066671666909833E-003
  8.278808759366716E-003   1.00586793238165        1.00875825736749       0.979838601559852       0.977391705229883       0.974287546298262       0.984912290361429       0.982774130726806       0.994041237926234      -2.048488576091596E-003  1.212821402325910E-002 -9.948487968441343E-003  0.976835151276361       0.974452637290387       1.548349792955439E-002  4.022821685673473E-003
  9.069727866045816E-003  1.027042256807201E-002  0.973088447988272       0.970684727878182      -8.532255584473831E-003 -1.063194290472396E-002 -4.068761142994036E-004  1.357963472803367E-002  0.983912242460131       0.981064012111281       0.982966343883643       0.980319396834173       0.981280799142550       0.980835019256553        1.00916148665819        1.00587370493885     
 -6.273914455121256E-003  1.205310462331161E-003   1.00238842898268        1.00161464884853       0.984977130527739        1.00455366136378        1.00420577707283       0.971939239480345       1.771798787792661E-002  0.981999612162262       0.983396419636673       1.150885294340087E-002  0.998892380241648       0.989766889234927       0.969345672675662      -3.564326125745461E-003
 -5.093426952808082E-003  0.985938423169127       0.996234644069568       1.584908097301781E-002  0.979635737597749       2.133501680241424E-003  1.622421887989802E-002  1.409374113763705E-002  0.973921258522320        1.00814617600787       0.979003746174788        1.00166443822855        1.00060158786937       0.978481152308755       0.997894093022543       1.389595847979436E-002
 -4.778433715866177E-003 -8.624748410306108E-003 -3.180590944466152E-003 -1.021398964317317E-002 -9.765255119609633E-003  3.687046852532292E-003  0.976042841805948       0.976019536001360       0.973422625442390       1.193141721765962E-002   1.00980080704100       0.971233178794263       0.968771557237975       6.095356548182705E-003  0.972122374330637       0.966289201138028     
  0.964055139896758       9.172164063309880E-003 -7.870424818846023E-003 -1.081772514243242E-002 -1.743832943587938E-003  1.844599071546280E-002  1.629142617795460E-002  0.996777062947990        1.00339342703140      -1.201738311604930E-002  0.983314998832613       0.980147060159574      -1.331015219751892E-003 -7.601925296328148E-003  1.395354367550907E-002   1.00231304848017     
 -1.085584144085452E-002 -1.315233649278369E-002  0.977815713734885       0.977324335603790       8.299896959512405E-003  8.870076006937623E-003  0.987792115186228        1.01127560808838       0.990703161065922       1.618618565364547E-002  1.484963581275169E-003  0.969918214451224       0.967430166573812       0.964800047614531       0.961747279973513       1.818877116044506E-002
  4.525220966565421E-004  0.970697987418142       1.427943533095357E-002  2.006947418013399E-002 -1.233822968972909E-002  0.993614984387424       0.995013835283069       0.997763408506096       6.001719454816078E-003 -6.423266768070078E-003   1.00650056394129        1.00647057274825       0.967836405198739      -6.138971696147920E-003 -4.750714545055212E-003  3.617834976792894E-003
  0.971299505211861       1.311143497321642E-002  0.999532298461156        1.00122288149191       2.077312774574865E-002  1.864781377212623E-002  1.635214338840384E-002 -4.401803422227679E-003  2.252942694147916E-002  0.975165441460164       0.972326029970030      -1.480565167766305E-002  0.988157503687268      -1.084904049068225E-002   1.01090000326066       1.625519450096072E-002
  9.600403285797443E-003  2.065402558559594E-002   1.00511388772946       0.968727518804853       0.966152144435548       0.996384319167813       0.963192759647296       2.311934473392683E-002  6.426657522544446E-003  2.108096711659086E-002   1.00909353609011       5.847533200435085E-003  3.227316605326379E-003  2.872378468616859E-003  1.860398836603817E-002  3.523281829848635E-003
 -9.220925877290526E-003  0.990666193909117       0.985659621624595       0.983629451291446       0.986054564736596       0.988096022895811       0.995478306435213       1.382282855683600E-002 -2.347080086692975E-003  0.966428624161735       2.127398634951675E-002  0.969999567402156       0.991348765584153       0.990365286785545       0.988017574543860       0.985815831293141     
  0.988701363601881       0.989638719479518      -1.231253359876494E-002 -2.918846199540040E-003   1.00059465992293       0.984757193482738       0.968540769961497       0.998411415133575       0.997197447090714       2.542718844069393E-002   1.00852187212971        1.00674461079110        1.01029435932771        1.01199597942529      -1.327813488658493E-002 -1.584360984633003E-002
 -8.756418978727112E-003  1.892495323722043E-002  1.644887545473420E-002  1.373320571051565E-002 -1.038302827593859E-002  0.990977457341811        1.00944687006333       6.469840641146359E-003  0.980753176827272      -7.620641836278137E-003  0.992678394635138       0.993378703089103       0.994523105873229       8.112894053318359E-004  0.972844982938311       1.178245397089273E-002
  1.134024420180218E-002  0.981205048761441       0.971230859131125       0.959890274600801       0.963268291758308       0.960364832015530        1.00454265240103       0.964923469199863       0.968342754569098       0.974203516805246       0.972531409152809       0.976178827044994       0.977090343816690       0.975483415905249       0.973858423629654       0.957361236193972     
  0.954058896233072      -5.802982738408234E-003 -1.310535093204596E-002   1.01251249921064        1.01372257953683       0.982930124815792       0.980373194310179       6.869555243564792E-003  8.831178731614632E-004  1.441345819127023E-004 -2.135663480620901E-004 -5.975963133327174E-003   1.01181821686392        1.00752624655564      -1.082639630925439E-002  2.794007183503524E-002
  2.514114501807439E-002 -1.509250580394125E-002  8.492630221428314E-003 -1.576138050388206E-002 -1.866374473084912E-002  0.992512577702987       0.990617354845425      -1.273103317691959E-002 -1.549872575933904E-002  2.745499283872927E-002   1.01138343333650       1.108006060081488E-002  0.987011348060243       0.987599753597815        1.00342339096376        1.00944147304325     
   1.01230848160740       0.988223009912912       0.962074669124842       0.959108032463493       0.955855981566569       0.952300224844701      -3.545864681679751E-003  0.978149150982074       0.985450597233959       0.984866565761189       0.983160353073862        1.00964910069185       0.978055838379357      -1.265569490328393E-002  0.984627302376649       0.967667251697773     
  0.969576244933311       0.970922554962924       0.972091327101910        1.01152425996431        1.01210980167245      -9.269222817362897E-003 -1.807310955189246E-002  0.963678512917056       0.974144987495627       0.971204379655072       5.567597654758851E-003   1.00757936564132      -4.003210725025154E-003 -7.764562507117689E-003   1.01233933598447        1.00458996096774     
   1.00244308985730        1.01328084352211       2.171827532608995E-002  3.016255627960880E-002  2.740955437434125E-002 -9.123356790951101E-003  2.318487603758648E-002  2.500244868788977E-002  2.410594555915815E-002  0.978412303962035       0.977270946207734       2.605211697696622E-003  3.241658139422682E-003  0.999449413024269       1.006851288105740E-002   1.01439972095414     
  0.961126807639706       0.987974931121868       0.993897833893029       0.995748208434413       0.958320841309159      -1.252891757634297E-002 -1.515817593109518E-002  0.965181571879453       0.980770617605529      -1.556763626778591E-002  0.981576901696021       0.984802462837906       0.991200551536359        1.00695343816646       0.973227777274784       0.969382994922935     
  0.966294270750594       0.963986528918842       0.967989654283452        1.01375016404534      -7.195157454736640E-003 -1.083672855533253E-002  1.084952308624600E-002  2.329721586302294E-002  1.930434035218320E-002  1.655802567845958E-002  3.065207614510905E-002  2.823883232821427E-002  2.680873257524162E-002   1.00540768284676       1.363004839781104E-002 -1.400237867620913E-003
 -1.360000550124984E-003   1.01458046487732        1.01689293326796      -1.574079570693791E-002  0.955217734247177       0.952106111558222       3.311728872307045E-002  3.080987090061028E-002  2.852972501698306E-002 -1.235900320721093E-002   1.01428782997281        1.01797559914523       0.975677024371943       0.970197913201211      -5.077710702269432E-003  8.208785206735491E-003
  7.235038905271550E-003 -1.860109685783189E-002   1.01448484198427        1.01557375547561       2.544620327352114E-002  2.200003415371581E-002  0.966485435174296       0.968001565492633       0.969494523874593       0.969680606796674       0.998150156471690        1.00592708217175        1.00865675365702        1.00443974336718      -1.111514691984914E-002 -1.351729669706828E-002
 -1.569581067805868E-002  0.948926596302722      -1.053408395851107E-002 -1.397395024762506E-002  0.975575207595605       0.956701645428364        1.00951242539019        1.01234928530687       0.981679542157640      -1.395539115833295E-002  0.991765580318333      -1.776474541758246E-002 -2.109404857742229E-002  3.605859206501974E-002  3.385354900872257E-002  3.169336366488738E-002
  2.969895825570695E-002  0.972610758473998       0.975423399010616        1.00135471438582        1.00009547672281       2.258349751690256E-002   1.00756404266433      -4.780147503539611E-004  5.337466767987963E-003  2.518441757404237E-003  0.966887240630778       0.969280964621366       0.978591779114268       2.520688955942412E-002  1.900174681670880E-002  1.631776810053469E-002
   1.00025741893770        1.00279190996506       0.999345958925014        1.00632133754991        1.01509330610597        1.01530014272354       1.334900011201996E-002   1.00404363343878       3.350668126601886E-002  3.065891510663380E-002  0.953653426701074       0.950400510691503        1.00587556350022       0.946836205053668       3.901397641234857E-002  3.675140430308819E-002
  3.461056687209387E-002   1.00938356960564       0.961438989041764       0.957959379791966       1.950104166741938E-002  0.963064290761945       0.985495351439509       0.977540347147370      -1.674099360972387E-002  0.965775640981356       1.963561318413800E-002  1.663289077000493E-002  0.964768043540604       0.966757189920263      -6.548288296893484E-004 -7.609063901184994E-003
 -1.456132672715235E-002  1.031921637473336E-002  0.964062105172413       0.961842571422379       0.968206701876619      -1.776982875106750E-002  7.892883387468224E-003  0.955167329835646       1.348644924005569E-002  2.282449735462400E-002  2.627743581166913E-002 -1.236840369719447E-002 -1.533407736111083E-002 -1.380576066851598E-002 -1.708354176128863E-002 -1.799359269927054E-002
  0.955180983852895       0.959348561926497      -2.191825714682573E-002  4.207252778138171E-002  3.963452467629015E-002  3.726454269511138E-002  3.545560999575412E-002  7.245743277650756E-003   1.01279655647731        1.01738629166064        1.01933087613188        1.01015648432266        1.01705560437350       0.971983819296326       0.975396543245136       0.961141700672576     
 -2.908960228772971E-003  3.660093722510901E-002  3.386966790384115E-002  3.088137724444638E-002  0.952317418886339       0.948550753247707       2.296247893944801E-002  0.997065556462765       4.670060945937390E-003  4.349706147152948E-003 -1.796564261549344E-002 -1.568988051711901E-002 -1.754001461897798E-002  0.963121486797486       0.959230867657072       0.978628918565288     
  5.209436272467180E-003  3.090555387514455E-003  1.365141614571490E-002  1.053018062520722E-002  0.944007143992218       0.948704077249250      -1.880408176041021E-002 -1.879996205115448E-002 -1.797043382568488E-002 -2.175302457349222E-002  0.965433702107943       4.528859525713320E-002  4.280396692937734E-002  3.983592899593938E-002  2.014170785210794E-002  0.954421305184656     
  0.957863013278530       0.960044827421255       0.950859860647833       0.956590051325546       0.953009549347684       0.949373746016859       7.199350059009249E-003 -1.213649901292145E-002  0.998085489289445       0.974889104077713       0.973678934486739      -2.029383008505778E-002 -2.031245408719487E-002  0.970971418037840       1.668500330587622E-002  1.725595461199662E-003
  0.981720566663120       0.984773229687182       1.717474052488977E-002  1.986329760128325E-002  1.669203896911240E-002  1.334923031401450E-002  3.980076748081435E-002  3.718873413796169E-002  0.979037750456402       0.973794943997555       1.047298992019391E-002  7.134200794370919E-003  0.945233427895527       0.941713423945117       1.260544559197176E-003  1.010933778589969E-002
   1.01468776839412       0.961339598773316       0.957220366402691      -1.920072800884907E-002 -2.141708039535859E-002  0.938093124818141       0.934420925766536       2.376866694859050E-002  0.947300556293707       3.436739665980602E-002  3.122684007010030E-002  2.759474508264092E-002  4.862643963179652E-002  4.620553317459580E-002  4.372858263484170E-002  4.163809127669588E-002
 -1.142803501370894E-003  0.987998614140129       0.991232958624650       0.955255091653816       4.089783530093446E-003 -1.697791402568497E-003   1.01459529305704       2.327321096956109E-002  4.304896459192833E-002  4.047622803781541E-002  3.798674011353673E-002  2.089484489480168E-002  6.344928649399967E-003  1.398724428886599E-002  0.943767563114171       0.940157081448124     
  0.943040725274341       0.987951144395330       0.994444367920141       0.994501148674786       0.946084129245510      -1.932282310293146E-003  0.958883258262530       0.951488807977953       0.947694770549102       0.989168775935327       0.992851706267369       0.938955275022681        1.01114949601167       0.991229621113877       0.935163139580278       0.957243020068712     
  0.955235653529218       0.953092063672584       0.972231541677624       0.945835232510397       0.957712607069380       1.060458856257670E-002  6.970718936862869E-003   1.01693234776145        1.01553268499597        1.01697157122423        1.01919581205100       1.154429691772224E-003 -1.088733907911633E-003  9.735934303424518E-003  4.637576048793133E-002  4.365254895428537E-002
  4.113255248681792E-002  3.966884945126747E-002  0.950904135851945       0.946796033694962       0.931164945194498       2.011300208331892E-002  1.679953670569935E-002  2.573457539738866E-002  0.990113098500831       0.978868962567402       0.982738423258735       0.986467315303989       0.975588897513445       0.975579372572012       5.206847805680531E-002  4.960921601604530E-002
  4.712196262210510E-002  4.472761106229799E-002  4.161715974779195E-002  0.953764472737267       0.956178920657427       1.331337264784561E-002  1.773354315549706E-002  0.961773255449530       0.993781099735434       0.964301812188625       0.960258980945829       0.966862040371011       0.940566133656105       0.998636431432907        1.00163031109971       0.994629298300085     
  0.942370939544957       0.938657212442094        1.00235255784363       0.949273435387446       1.435790174896062E-002   1.01807163766407       2.733050630142756E-002  3.517721709049928E-003  0.936381013694606       0.953211493893352        1.00076414736007        1.00354021767887        1.00666377933348       0.968004164292554       0.945399818363688       0.949765732402942     
  0.945181913646538       5.754540520047486E-003  4.985533308396386E-002  4.698684644460132E-002  4.383086166646089E-002 -9.750788732340235E-003 -1.281128651385219E-002 -1.620893190224805E-002 -6.089641610375400E-003 -8.451957715467398E-003 -4.205800265050562E-003  0.987803732878698       0.980017416883437       0.999976374654407       0.944486192734219       0.937163780030169     
  0.933152643052299       2.379241327285409E-002  2.766666205064817E-002  2.487983906178920E-002  0.997331959717505       0.998668936456576       0.991185565909380        1.01849964245291        1.02053408365415       0.990930859311758       0.996437842889769       0.997563787940553       0.994703000794136       0.984578164214315       0.963658081897607       1.076512568252738E-002
  6.903288893408486E-003  0.934586015772791       0.951302570042022       0.948969817791300       3.259113517632891E-002  3.148525568825464E-002  2.948468359662431E-002  0.942567544847433       0.947903592503048       0.944493225150141       5.563847656279584E-002  5.310265847001382E-002  5.048056597872476E-002  0.983812717213232       0.987362082365272       0.987862598860252     