 VARIABLES = "X" "Y"
 ZONE T="  0.000000000000000E+000 " N=        9944  E=       19548
 ZONETYPE=FETRIANGLE DATAPACKING=BLOCK
  -19.9782054645671       -16.7460447536127       -13.5432470514743       -10.4462771124608       -7.39483127129757       -4.39431260318683       -1.43672854734527        1.47853524247441        4.40194279230921        7.38347804238703        10.4122197804982        13.5308676756442        16.7310607632789        20.0189460056259        20.0156650185539        20.0123451374732     
   20.0090067226427        20.0056742799471        20.0022854763303        19.9988742323503        19.9954939648514        19.9920871178897        19.9886881104951        19.9853470049941        19.9820070605281        19.9783478910574        16.7317203104092        13.4557822172063        10.1645634122701        6.87452312340184        3.53259687976399       0.170578499054329     
  -3.16443525887912       -6.48474521199279       -9.79114624567630       -13.0836966857758       -16.3754018560739       -20.0188035791356       -20.0155069002833       -20.0121812769038       -20.0088400757232       -20.0054989473046       -20.0021446450312       -19.9987763328347       -19.9953939522161       -19.9920253568386       -19.9886729196427       -19.9853365630757     
  -19.9819979716434       0.999424931930070       0.997905882444549       0.996391119863523       0.994886482566432       0.993337074923773       0.991726521049064       0.990049952194547       0.988311842889380       0.986512064982043       0.984648274106203       0.982706425699525       0.980695067058333       0.978597959525735       0.976427801029947       0.974180716787728     
  0.971849271206125       0.969430898599971       0.966924768520227       0.964328550948473       0.961642604178413       0.958861931502174       0.955978698851838       0.952981754824301       0.949861651880903       0.946647202008903       0.943316666952391       0.939837371585501       0.936251832913907       0.932547892603175       0.928704009272211       0.924685140476846     
  0.920522020559398       0.916209366333873       0.911733228376997       0.907084580509589       0.902256927187204       0.897243692803477       0.892032221414324       0.886609670959059       0.880968308799146       0.875100294933045       0.869006723976605       0.862680289947151       0.856112964564380       0.849294645723655       0.842216388291877       0.834869627992515     
  0.827247920257597       0.819342770459313       0.811145854410563       0.802648740858332       0.793842549132480       0.784719608837225       0.775271007939936       0.765372156447536       0.755112387078516       0.744480328770880       0.733465386767224       0.722060663439123       0.710253906360713       0.698032613559002       0.685389715186166       0.672313649973960     
  0.658790725036480       0.644813825507050       0.630369742621714       0.615442093906512       0.600020116023403       0.584083531869762       0.567620270911690       0.550615286641605       0.533659406972260       0.516670423537460       0.499616146116418       0.482496774151341       0.465312019499057       0.447411868379903       0.430113316776285       0.413414362572659     
  0.397312874668856       0.381792483710272       0.366768134507358       0.352221160160975       0.338147195638602       0.324554781514563       0.311428649468459       0.298769590786607       0.286578296512058       0.274836271817323       0.263518296340742       0.252576787990786       0.241998984580468       0.231772362314177       0.221889530688622       0.212342272376566     
  0.203118803372612       0.194207788527263       0.185604521842859       0.177292684604931       0.169262514964947       0.161496962911140       0.153989130811739       0.146732568023729       0.139721119883516       0.132948521993859       0.126407835028787       0.120093444873995       0.114000100864457       0.108122457474432       0.102455941538121       9.699614441284932E-002
  9.173884830224739E-002  8.668053715704628E-002  8.181745316227278E-002  7.714581270156816E-002  7.274321781288033E-002  6.850324578755865E-002  6.442751801772824E-002  6.051426314280151E-002  5.676357298505986E-002  5.315352176068019E-002  4.969564777788776E-002  4.638783711313883E-002  4.321245217420101E-002  4.014048073036382E-002  3.716881270839677E-002  3.427476756121386E-002
  3.145867778090341E-002  2.872556377134941E-002  2.607822846177390E-002  2.352059197996868E-002  2.105871514832727E-002  1.870016102437900E-002  1.656239506602811E-002  1.450491857047358E-002  1.254723961448018E-002  1.070806745734823E-002  9.011901773528242E-003  7.394767736118354E-003  5.820889786859022E-003  4.391819840424160E-003  3.098930818893492E-003  1.979742740384630E-003
  1.093392783456797E-003  5.062369027395619E-004  2.314621952280521E-004  1.916893566433209E-004  4.703648139329271E-004  1.103804427399423E-003  2.044021873878454E-003  3.202137292783105E-003  4.507672380215265E-003  5.906724540206863E-003  7.596340275723675E-003  9.372707631403925E-003  1.125142387495326E-002  1.314685190051238E-002  1.508868225904455E-002  1.712474710818192E-002
  1.930552566401246E-002  2.159755317876164E-002  2.401069723535083E-002  2.648566430551717E-002  2.902998852163876E-002  3.168751999464520E-002  3.449768417535448E-002  3.745798767717561E-002  4.055803317986484E-002  4.378589617447596E-002  4.713079655390202E-002  5.058094149432590E-002  5.413296117017524E-002  5.778673284078212E-002  6.153496028502855E-002  6.573667812457198E-002
  7.008341296686955E-002  7.457262624445353E-002  7.920122657930198E-002  8.390078563627196E-002  8.874026839812957E-002  9.374589121247648E-002  9.891560812694225E-002  0.104251542594515       0.109744034049453       0.115412495771111       0.121297833124433       0.127449663553258       0.133881014325255       0.140595123014945       0.147588578293921       0.154862668709550     
  0.162420553398468       0.170263322449925       0.178394995367390       0.186819123433851       0.195540227335190       0.204743105588554       0.214286553500573       0.224176395664165       0.234421779863508       0.245031070876883       0.256011510147525       0.267373564339046       0.279128112241848       0.291282810115512       0.303848623315627       0.316838035616967     
  0.330258729435971       0.344120825774999       0.358437962417101       0.373210690698445       0.388449928832810       0.404162057630620       0.420332906883451       0.436973122087639       0.454025659048380       0.471482561899188       0.489018124333615       0.506425729225460       0.523703627836598       0.540854160579615       0.557880966679559       0.574465845509256     
  0.590584949517393       0.606218310448676       0.621364571280047       0.636025531144944       0.650164989342356       0.663794070122807       0.676927799118754       0.689583847128189       0.701782294685175       0.713574320350789       0.725001570203441       0.736071917184778       0.746793496026175       0.757168350382768       0.767204763595967       0.776911446170986     
  0.786297109604717       0.795283683858132       0.803940255031469       0.812271616338406       0.820283646274836       0.827980990937324       0.835367996492493       0.842451926832749       0.849295408852651       0.855928375884010       0.862353947086698       0.868575940104477       0.874598256763797       0.880424921146519       0.886059255404679       0.891504400066906     
  0.896763831199574       0.901841925143127       0.906746435210774       0.911481924019304       0.916052907383461       0.920270139601535       0.924371418010237       0.928354865205419       0.932223368731875       0.935961988420682       0.939567721221098       0.943046929071173       0.946391860692751       0.949606133709703       0.952705094226014       0.955664661792282     
  0.958491499763235       0.961242012347593       0.963913150227640       0.966503079811446       0.969010554959468       0.971435005363793       0.973777615794428       0.976039440644181       0.978223805002341       0.980334622970106       0.982323765575384       0.984258377380897       0.986123811516705       0.987924825766256       0.989665395512890       0.991346828711358     
  0.992964697473527       0.994520285844196       0.996016118854926       0.997508010441492      -1.045684827085957E-003 -8.594926632698914E-004 -9.781608040569168E-004  0.995664387187912       0.997106786019005       0.995655822205875       0.996901471639116      -2.466143586571614E-003 -4.102783230671656E-004  0.995340292409117       0.996118634302072      -2.049867956268309E-003
  0.994272627889124      -2.367564480958993E-003  0.993796643319216       0.992141226443790      -6.066636603725467E-004  0.992551278510031       0.993532890277821      -2.376050124851609E-003 -3.948390489722745E-003  0.994647829914099       0.994808576483990       0.998538503180918      -1.456271514688320E-003  3.249100428130196E-004  0.990800459728376       0.989029660859457     
  0.987254853727684       0.991644141344139       0.997847902005395       0.993133531702674       0.990926058113306       1.879885535857810E-004 -2.017033900573045E-003 -4.031952411200045E-003  0.992531826883293       0.997097990047412        1.00018603068256       0.997815740031392        1.00086579516771      -3.366661924350064E-003  1.333027015210319E-003  0.996227246982284     
  0.996618385204169       0.999182002657738       0.989198124939106       0.989813895416940       0.987962261098619       0.986048069283467       0.990656651050574       0.992432998439129       1.294246028071925E-003 -6.962389663892632E-004  3.965588503180141E-003   1.00197219941218       0.990183446156724      -5.388321650820995E-003  2.581397630270272E-003  0.990649673810692     
  0.987315241845860       0.988704994488520       2.549352646332533E-003 -4.082348987086874E-003  0.991390627825544       0.999593793790398       0.999051889659312       4.036907362774599E-003  0.988818646758201      -2.620467584713767E-003 -3.796340734760257E-003   1.00288108871731        1.00094851261287       0.994543004198018       0.998679359357998        1.00075400089540     
  0.993435217022111       7.350108713286977E-003 -2.458085389462247E-003  0.999321429533751       0.998466324648780       5.661500944918602E-003  0.985350913740245       0.983366014140582       0.991586863780579       0.997707170272928       0.986604267144246      -5.851377938703198E-003  0.988008928745515       9.007993082933999E-003 -5.698580430640319E-004  6.004690277511952E-004
 -5.393049587157470E-003  0.983952364072161        1.00315753461168       0.986831499207708       0.984624343122393       0.997502526811282       0.995469242973423      -1.558337707177077E-003   1.00374879430070        1.00562705662587        1.00148464285520       0.984459241887240       0.982211869673865        1.00058566284017       0.993895528425326       0.985819154244882     
 -4.816095143661204E-003  5.637041287728229E-003  1.840396718059916E-003  7.390952306349605E-003 -7.165600138747889E-003 -1.652932144260866E-003 -1.898479511213338E-004  4.807796218597720E-004  2.038869509180127E-003  0.994421195795812        1.00232613398983       0.995314585638929       0.987958550487264       0.992243552145761       0.981570962131381       0.979410536084876     
  0.982400006176032       3.732221247922345E-003 -5.596942110797434E-003 -7.468226660279479E-003  0.977257640236857       0.989415656899132       5.567734290129650E-003  0.985682046597906       0.990618935837916       0.993381228005433        1.00009145264706       0.999317589547615       3.409068809284467E-003   1.00508527514486        1.00405562421705       0.996267828420575     
  0.998220644809546       6.162325767348272E-003  0.999716769965792        1.00201991421504       1.076794389266821E-002   1.00263300778503        1.00657753151729        1.00432320730450        1.00692228624395       0.989768692821867       0.992917567072298       0.988738444297388       1.490401671743336E-003  7.342450521054500E-003  0.989715975883166       0.985601208071121     
  0.982941482133140       8.784579057765264E-003 -6.056536310508923E-003 -3.840497738958542E-003 -2.621605016657511E-003 -3.883593698233714E-003  0.991048538030122       0.992163761059039       0.980277533112948       0.978079570990770       0.975695593998796       1.117590007670121E-002  0.991743831826854       0.995709822330570       0.994682828616599       0.996792950787502     
  5.172560140933001E-003  1.312920002086202E-002  0.987347563306997       0.987040548723513        1.00294128666085       0.988989773428161       9.230998371996884E-003  0.987028730641428      -4.085248455853245E-003 -8.001341540889977E-003  0.981071607258101       0.979818192947619       1.273672168710663E-002  0.981608160201522       0.977325217074013      -6.054651822791254E-003
  0.985101482931468      -7.536021482766496E-003  1.078953222613058E-002  0.994278375322798      -2.921238984990185E-003  3.534483022731734E-003  0.975040957417448       1.115014618116727E-002 -4.441864661963796E-004  1.065869915613314E-003  1.512701689716169E-002 -1.041883471693216E-003  7.097933352374643E-003  0.978438938243842      -6.371885064623845E-003 -9.077979672791975E-003
  9.128638035233189E-003   1.00528271972119        1.00817596871098       0.979168223145207       0.976711257812843       0.973589688850524       0.984258660634947       0.982112259906714       0.993408315079346      -1.484368075562265E-003  1.307094674384731E-002 -9.806598525376412E-003  0.976407710820117       0.974039201138086       1.482804579272039E-002  4.770845585426235E-003
  8.537260519553114E-003  1.118635355464016E-002  0.972682720758623       0.970293719241009      -8.215191683877065E-003 -1.036295554882371E-002  2.275541419150985E-004  1.295441221360850E-002  0.983443025803813       0.980613637680308       0.982507504948324       0.979876913757531       0.980614656181064       0.980165460151709        1.00860224304533        1.00533038188824     
 -5.837272951676519E-003  8.907850295442504E-004   1.00185684041879        1.00109396492722       0.984511875529405        1.00396266987878        1.00360943052211       0.971540556916085       1.701157171737898E-002  0.981550567082582       0.982942500398155       1.091318811542913E-002  0.998379196365833       0.989277886636321       0.968961339035176      -3.755074797591199E-003
 -5.213505663751674E-003  0.985287430037127       0.995729737014561       1.517349572761728E-002  0.979198552767084       2.813885186118733E-003  1.725132930013348E-002  1.508243675275037E-002  0.973222993351601        1.00757832448613       0.978329081228700        1.00106213858521       0.999990068086162       0.978046707312310       0.997275482371672       1.324717159374989E-002
 -4.261803172402988E-003 -8.245811619736429E-003 -2.594045097917188E-003 -1.001035264113006E-002 -9.695767753811955E-003  3.285605466244094E-003  0.975354977219086       0.975598477905421       0.973016320858092       1.130736506652376E-002   1.00922710968221       0.970521621564133       0.968049381246950       6.908342060916752E-003  0.971414055052693       0.965555996915398     
  0.963313039474872       8.610569521770573E-003 -7.953484523415839E-003 -1.086890703938770E-002 -2.007263842182326E-003  1.952150865955067E-002  1.732885487025028E-002  0.996150971099265        1.00278840001619      -1.184610831136669E-002  0.982653892215300       0.979471097275442      -6.739053185738995E-004 -7.131318238760705E-003  1.495330509532982E-002   1.00169969509983     
 -1.052289420807365E-002 -1.286426491557346E-002  0.977386371511193       0.976902217396440       9.174037147694063E-003  9.775083125243627E-003  0.987315925257418        1.01069784303398       0.990217560006820       1.549469322709186E-002  2.189237417281355E-003  0.969201414097278       0.966703344420423       0.964062636086575       0.960995528210789       1.746487052845961E-002
  1.022589104101495E-004  0.970306775921978       1.361285925076342E-002  1.931226768698170E-002 -1.222224078341875E-002  0.993118767828512       0.994519261359603       0.997260753989819       6.838335526453087E-003 -6.573938895877509E-003   1.00590979250851        1.00587155834497       0.967461637343616      -5.599883528571581E-003 -4.970104068901323E-003  4.390083029729572E-003
  0.970587484720149       1.245325830743655E-002  0.998912734484099        1.00060200255396       2.189547059815136E-002  1.973338659222316E-002  1.740007717741815E-002 -3.794797663986877E-003  2.172137947634045E-002  0.974751607718434       0.971927401957943      -1.463740782170148E-002  0.987687321763047      -1.046016973045044E-002   1.01033404524586       1.555055993222657E-002
  9.010989314542486E-003  1.987924200815616E-002   1.00450654902009       0.968006031072064       0.965421827935290       0.995892200761400       0.962448893639702       2.428349367165069E-002  5.938616137026357E-003  2.221224406033838E-002   1.00850265459539       6.707501664222248E-003  4.024646357964812E-003  3.695490317575747E-003  1.786362633656933E-002  3.085931342398541E-003
 -8.723186227017598E-003  0.990188076665138       0.985197353880290       0.983177713380528       0.985594383312681       0.987631537209778       0.994844434513131       1.483306295831083E-002 -1.666535278789458E-003  0.966061371249902       2.048204191859620E-002  0.969282301677124       0.990708890337081       0.989726760994790       0.987372885568324       0.985160747567928     
  0.988054569628506       0.988989942726889      -1.228538257017472E-002 -3.209789391839656E-003   1.00008442979324       0.984308268828336       0.968161073031101       0.997784549294783       0.996562703051466       2.662895023730718E-002   1.00797817795150        1.00620803068537        1.00974302527804        1.01143762328087      -1.292896738909878E-002 -1.553411693481917E-002
 -8.335289762502017E-003  2.002010234259027E-002  1.750621191878256E-002  1.475270658909418E-002 -9.946535655277639E-003  0.990506766639881        1.00884900891644       5.947252449796001E-003  0.980313333754757      -7.060627878001760E-003  0.992190211736310       0.992894120427918       0.994045146006186       1.540386198270970E-003  0.972139051062996       1.273361087900765E-002
  1.230224642323096E-002  0.980770819246138       0.970518249820251       0.959128757908506       0.962922437185856       0.960036018641903        1.00400599617217       0.964567620382396       0.967620247927037       0.973503329296982       0.971822685989682       0.975490959673695       0.976403264761838       0.974786849961248       0.973151957864321       0.957050312849221     
  0.953767801622252      -5.177654553392481E-003 -1.270505414029034E-002   1.01194036179252        1.01314455463716       0.982264297349409       0.979695272938105       6.313970841917016E-003  4.891394017831767E-004  9.021490345204226E-004  5.740097829271029E-004 -6.223488779870102E-003   1.01122676807073        1.00692298848619      -1.030461074512648E-002  2.918904703758925E-002
  2.633940694082095E-002 -1.501376846233143E-002  9.413135933941415E-003 -1.539335978543453E-002 -1.832728795569295E-002  0.991871242579275       0.989966619882499      -1.250928433094160E-002 -1.525705229215488E-002  2.656078536047416E-002   1.01083956117206       1.205185824372790E-002  0.986355296573255       0.986942241661998        1.00290635052676        1.00890487512300     
   1.01177186075032       0.987562035090780       0.961734937911660       0.958785671205173       0.955552500590467       0.952017601817590      -2.833759727178634E-003  0.977728978424068       0.984789092491278       0.984205300945067       0.982493030134760        1.00904622045512       0.977369601096229      -1.219452836073499E-002  0.983959563987099       0.966942684738790     
  0.968857067206944       0.970206177679229       0.971377207468238        1.01094036282089        1.01151266009521      -8.690821432890912E-003 -1.794789060758796E-002  0.963330288594040       0.973739332721121       0.970813638683324       6.449478193836562E-003   1.00704996548027      -4.316385596762761E-003 -7.944580272590337E-003   1.01173655028503        1.00406186915554     
   1.00193605185224        1.01272931945929       2.285922026268321E-002  2.921508793937641E-002  2.651459951034641E-002 -9.331036859482158E-003  2.236091777239524E-002  2.414864007511152E-002  2.326612197049301E-002  0.977995332666591       0.976577467364847       3.452636585589846E-003  2.760490596227147E-003  0.998949579726667       9.454789339390507E-003   1.01381397283689     
  0.960792927343930       0.987519780047728       0.993254884802554       0.995102741948360       0.957550742325040      -1.198833967627378E-002 -1.513690843943752E-002  0.964447438090585       0.980090315740244      -1.515620579776119E-002  0.981149154900699       0.984365220339145       0.990739888501784        1.00634496927519       0.972828925897622       0.969000513384712     
  0.965930766401814       0.963638726829355       0.967616759312840        1.01318599057439      -7.469702744814633E-003 -1.098123644775710E-002  1.183077470328071E-002  2.446252420279843E-002  2.040848264330593E-002  1.762505429717140E-002  3.194260405791357E-002  2.949452231164764E-002  2.803950044160147E-002   1.00489405236718       1.465988523437233E-002 -1.747013738448063E-003
 -1.747955059658491E-003   1.01402271064105        1.01633084658361      -1.528395162891315E-002  0.954433845315426       0.951308695749500       3.211903936069513E-002  2.984865933712678E-002  2.760529780785121E-002 -1.253145615069106E-002   1.01369562662813        1.01738740231653       0.975266879061414       0.969815929938084      -5.408903220945476E-003  9.142391252729691E-003
  6.656262716037742E-003 -1.834032682252971E-002   1.01394126142000        1.01503706816138       2.458682045898066E-002  2.119052580606306E-002  0.965755360349219       0.967275814468013       0.968772370671389       0.968956286432615       0.997661691392259        1.00540515603309        1.00813517931484        1.00393624415851      -1.051855335352106E-002 -1.301906415809688E-002
 -1.519105621721477E-002  0.948114665000124      -1.076595681963385E-002 -1.417401922858102E-002  0.975168450212799       0.955924870115079        1.00890393417675        1.01174159078784       0.980995411832509      -1.406843406361179E-002  0.991111437535740      -1.771899189823558E-002 -2.100964796328265E-002  3.501591233748080E-002  3.284595004036005E-002  3.071745541545243E-002
  2.875108358887899E-002  0.972219662964154       0.975022084351518        1.00085800207478       0.999610327776914       2.373771645734868E-002   1.00705543535625       3.336109339019228E-004  6.238152178429167E-003  3.390041220032910E-003  0.966525292133868       0.968908885078242       0.978179469166021       2.434418768968724E-002  1.824420749270855E-002  1.559705894650414E-002
  0.999629821367700        1.00216966058609       0.998709824421859        1.00582064034890        1.01449651158002        1.01469700874109       1.267090672482032E-002   1.00342822787200       3.484032000650394E-002  3.194896589588284E-002  0.952864520462238       0.949597559596353        1.00525703232345       0.946017771604966       3.792959651949988E-002  3.570404929751272E-002
  3.359537373664417E-002   1.00888069091635       0.960685672005692       0.957188992513358       1.872561305489277E-002  0.962319001641282       0.984821536594473       0.976841647057170      -1.675321369605402E-002  0.965422777963773       2.075167641188212E-002  1.771220510469243E-002  0.964029399875420       0.966024858086815       1.791240036174229E-004 -6.969164004692980E-003
 -1.399638669484010E-002  9.682689226465709E-003  0.963716524178809       0.961509289515362       0.967845562497076      -1.757154522014680E-002  8.836673750182232E-003  0.954385138355827       1.452958232967203E-002  2.199408051112307E-002  2.538776800589443E-002 -1.245254657653796E-002 -1.539353143092585E-002 -1.383147300139997E-002 -1.716889554528029E-002 -1.757810475190846E-002
  0.954399572810753       0.958586260408637      -2.163027884903629E-002  4.094473573583328E-002  3.854903110047575E-002  3.621372255069071E-002  3.443103715463895E-002  6.645475152168099E-003   1.01226927989258        1.01684383621185        1.01879363881368        1.00962549082115        1.01652801866730       0.971602214004403       0.975002076029749       0.960386906472902     
 -2.147765032942753E-003  3.797846842379047E-002  3.520489884656248E-002  3.217043517843964E-002  0.951524127130863       0.947741589265045       2.413344928533356E-002  0.996587430112524       4.133165300446238E-003  3.799732093950525E-003 -1.801082864293953E-002 -1.583174406277021E-002 -1.771026328513203E-002  0.962373293557416       0.958465738513927       0.977950435719358     
  6.124642814848288E-003  3.993540308496066E-003  1.295396678822376E-002  1.152225375357085E-002  0.943176172871813       0.948445172849970      -1.835080887477743E-002 -1.827763833228362E-002 -1.758450328681871E-002 -2.137991774687095E-002  0.964691397566458       4.411613254638586E-002  4.167077101912733E-002  3.874707227525451E-002  1.934701347873617E-002  0.954125930810503     
  0.957547833493285       0.959718525188048       0.950586171641560       0.956282752689667       0.952723056343948       0.949108813554056       8.152663532458958E-003 -1.238247339985942E-002  0.997615687486440       0.974183318143467       0.972967932284529      -2.035211862066704E-002 -2.031023580327704E-002  0.970602445086634       1.594735139880329E-002  1.227068318751203E-003
  0.981299922099099       0.984344881424782       1.641798151443255E-002  2.099372761267114E-002  1.778608195796125E-002  1.440865822877884E-002  4.122064410556937E-002  3.857004063048818E-002  0.978628726012581       0.973418831973954       9.814616631848553E-003  6.512641937171340E-003  0.944995119176775       0.941495606897040       7.412880482530915E-004  1.111609288703232E-002
   1.01407709876609       0.960580668920501       0.956444736751794      -1.931480437494661E-002 -2.156261315284513E-002  0.937896742745440       0.934246551508149       2.291550770246807E-002  0.947048537689663       3.570530143623074E-002  3.251615269556223E-002  2.668028642532538E-002  4.741174895794945E-002  4.502896084384805E-002  4.258744909577806E-002  4.052520207927087E-002
 -2.916382035581601E-004  0.987554031535946       0.990782471944010       0.954956574367581       3.522825549362787E-003 -2.145639663661133E-003   1.01407612832400       2.445519036798782E-002  4.450783740553668E-002  4.189913838073338E-002  3.937583541939289E-002  2.007943733112086E-002  7.313360980158526E-003  1.326873860104248E-002  0.943535496006267       0.939945408012771     
  0.942203783081509       0.987516133289394       0.993978421478820       0.994046181840432       0.945260557048132      -2.421086287660665E-003  0.958563868137139       0.951211353092133       0.947438875148417       0.988502722086303       0.992192710433939       0.938099524667557        1.01063509815327       0.990788800623096       0.934291410523365       0.956470745873874     
  0.954453139464158       0.952300156554771       0.971512609342618       0.945590514103921       0.957402977379865       9.922974703205226E-003  6.324240821364813E-003   1.01638108697088        1.01496188195915        1.01639336943260        1.01862600409369       6.142039316078598E-004 -1.623299023318161E-003  1.076048784468471E-002  4.787267816716474E-002  4.510949839727236E-002
  4.255938802099093E-002  4.107260589294495E-002  0.950104497354149       0.945980097560276       0.930275732841318       2.125715046812262E-002  1.790992171265794E-002  2.695002221132058E-002  0.989442181999512       0.978170727311766       0.982051509556226       0.985789159670271       0.974881106147885       0.974867883797935       5.081246492766880E-002  4.839298655212738E-002
  4.594135865600017E-002  4.357842133612371E-002  4.051381525752484E-002  0.953475377934501       0.955879372401435       1.439096505344644E-002  1.695563649521866E-002  0.961438390817127       0.993116964947714       0.963960365355481       0.959938950300269       0.966513274123838       0.939718137078497       0.997993032353530        1.00099234271907       0.994183208540058     
  0.942144025751480       0.938451701993858        1.00187171205358       0.948467330850359       1.361652174681860E-002   1.01755421617647       2.856676504001042E-002  2.932966606608168E-003  0.936191390591551       0.952420936608500        1.00029849131594        1.00304603425948        1.00617192226296       0.967267894952815       0.944579494018251       0.949496589078774     
  0.944937338702465       6.741935873702089E-003  5.139139416049075E-002  4.848160734378595E-002  4.528525822864297E-002 -9.104155369103797E-003 -1.220061713669521E-002 -1.561314846326720E-002 -5.382512132001447E-003 -7.749017862072061E-003 -3.434462610724760E-003  0.987378410176673       0.979318756943766       0.999329555818403       0.944247390010604       0.936303111323650     
  0.932275071509996       2.498496412734846E-002  2.890926447794928E-002  2.400407767035998E-002  0.996874682677876       0.998218027824519       0.990754308216948        1.01790329983691        1.01998912263084       0.990255268044482       0.995785786493931       0.996905828525637       0.994033174355687       0.984158609092575       0.962904801753283       1.005860524068479E-002
  6.229989484969660E-003  0.934403814125440       0.950503712416761       0.948162885178916       3.160468581319652E-002  3.051315026632909E-002  2.853803333973633E-002  0.941733121327195       0.947093044238671       0.943668683908170       5.434095766270141E-002  5.184592848106537E-002  4.926415801606044E-002  0.983123749985157       0.986680047134609       0.987176769137645     