 variables= "x","y","fpcb"
 zone i=         110  datapacking=point
  4.363323129985824E-002   1.00000000000000       0.000000000000000E+000
  3.138244459596606E-002  0.916099167027243       0.000000000000000E+000
  6.177958191409684E-002   1.24233663705038       0.000000000000000E+000
  6.479448346757359E-002   1.04276800993239       0.000000000000000E+000
  4.236343273442112E-002  0.711033921065865       0.000000000000000E+000
  5.067882219402806E-002  0.801656834454451       0.000000000000000E+000
  7.795621843690445E-002   1.44641670162891       0.000000000000000E+000
  8.669358010740361E-002  0.652777037524170       0.000000000000000E+000
  1.847473288684725E-002   1.40548790541950       0.000000000000000E+000
  1.076170176419216E-002  0.580681008362418       0.000000000000000E+000
  2.778432016821251E-004   1.05116216419500       0.000000000000000E+000
  3.665485835093780E-002   1.15522090321000       0.000000000000000E+000
  7.965797213813221E-002  0.501943406843908       0.000000000000000E+000
  2.038668508636345E-003  0.800955134762202       0.000000000000000E+000
  8.604691663500466E-002  0.542345792504880       0.000000000000000E+000
  4.772926828396035E-002  0.526588377162197       0.000000000000000E+000
  4.668217280073560E-003  0.761187098503615       0.000000000000000E+000
  3.892094712497234E-005  0.846278369916843       0.000000000000000E+000
  5.360644365478195E-002  0.569761523450640       0.000000000000000E+000
  8.040262663472665E-004  0.705109282438884       0.000000000000000E+000
  7.902477467605065E-002  0.936452400827687       0.000000000000000E+000
  8.662947074111058E-002  0.805106058901985       0.000000000000000E+000
  2.531368796142863E-003  0.501949799239936       0.000000000000000E+000
  7.023251166093072E-003   1.25494710297284       0.000000000000000E+000
  7.686659543677959E-002  0.971582894848795       0.000000000000000E+000
  4.274210487039706E-003   1.21346870448859       0.000000000000000E+000
  8.675186653355352E-002  0.767472573602844       0.000000000000000E+000
  7.549802482553289E-002  0.901514370972864       0.000000000000000E+000
  3.877884724935838E-003   1.29096072254100       0.000000000000000E+000
  7.851745068272055E-002   1.00777566506797       0.000000000000000E+000
  6.996263959106926E-002  0.830977022170519       0.000000000000000E+000
  4.553070873507096E-002   1.37264685719961       0.000000000000000E+000
  8.719703958195772E-002  0.619557248655272       0.000000000000000E+000
  4.851672295261097E-002   1.41264446941226       0.000000000000000E+000
  4.812278412239903E-002   1.48956630102604       0.000000000000000E+000
  4.719281539329714E-002   1.34139772829053       0.000000000000000E+000
  2.775616568590677E-002  0.827438998661908       0.000000000000000E+000
  4.540266594267951E-002   1.45258249942656       0.000000000000000E+000
  5.461389882411501E-002  0.769034565207037       0.000000000000000E+000
  8.125409953680347E-002   1.27464581655101       0.000000000000000E+000
  8.709233425085208E-002  0.704625764023155       0.000000000000000E+000
  1.304647289613970E-002   1.11384318224248       0.000000000000000E+000
  8.726312323600365E-002   1.38364508961126       0.000000000000000E+000
  8.720652045151812E-002   1.41345054161617       0.000000000000000E+000
  8.695776230347577E-002   1.47041571278986       0.000000000000000E+000
  8.678484200122907E-002   1.33074805856366       0.000000000000000E+000
  8.716930315450470E-002   1.23536055376109       0.000000000000000E+000
  8.571471073468845E-002   1.30172814077354       0.000000000000000E+000
  4.584597926863472E-003   1.49869400298308       0.000000000000000E+000
  8.436715774779008E-002   1.49687940428661       0.000000000000000E+000
  5.740486561565292E-002  0.915720708383081       0.000000000000000E+000
  8.601868470495055E-002   1.15014693381871       0.000000000000000E+000
  8.650128629314095E-002   1.10794417326343       0.000000000000000E+000
  8.675463358535729E-002   1.06945950695846       0.000000000000000E+000
  8.558089307362977E-002   1.19377750219690       0.000000000000000E+000
  4.872185258101090E-002  0.938460390235917       0.000000000000000E+000
  8.003531899590534E-002  0.590341604028091       0.000000000000000E+000
  8.252689523734384E-002  0.566936430421426       0.000000000000000E+000
  7.230848244936105E-003   1.43428633233153       0.000000000000000E+000
  2.572913419156517E-002   1.26595412986214       0.000000000000000E+000
  7.831165364060724E-003   1.46238220278452       0.000000000000000E+000
  2.510453782345846E-002   1.29073081380526       0.000000000000000E+000
  5.193239575215054E-005   1.38456017480547       0.000000000000000E+000
  2.548786793915463E-002   1.24336979044262       0.000000000000000E+000
  2.584265960688620E-002   1.31566644916502       0.000000000000000E+000
  4.725454920487145E-002  0.834654599404435       0.000000000000000E+000
  2.451789916272280E-002   1.21767475095530       0.000000000000000E+000
  1.699190581562606E-004  0.560640979027158       0.000000000000000E+000
  2.645302314275393E-002   1.34412459783360       0.000000000000000E+000
  1.956787239514195E-002  0.725624112687282       0.000000000000000E+000
  3.994810509120467E-002  0.854285341841188       0.000000000000000E+000
  1.947155713098275E-002  0.746857296937021       0.000000000000000E+000
  2.631901195130070E-002   1.49276950728561       0.000000000000000E+000
  3.020508106381766E-002  0.507034303289475       0.000000000000000E+000
  6.650348806463080E-002  0.687170995164240       0.000000000000000E+000
  6.618592677641802E-002  0.707525823309121       0.000000000000000E+000
  8.653736938573307E-002  0.916624430197427       0.000000000000000E+000
  2.086071677648045E-002  0.526914951011435       0.000000000000000E+000
  6.684686700768772E-002  0.656723060564879       0.000000000000000E+000
  8.717443888872076E-002  0.955160180632892       0.000000000000000E+000
  6.851935322291161E-002  0.735044406687625       0.000000000000000E+000
  3.205141805415017E-002   1.47480647292988       0.000000000000000E+000
  6.572787503573398E-002  0.635892704826799       0.000000000000000E+000
  2.784336135457476E-002  0.544702447926893       0.000000000000000E+000
  6.709916405021031E-002  0.615059821632501       0.000000000000000E+000
  8.435643428397920E-002  0.881221984349021       0.000000000000000E+000
  2.634029352959136E-002   1.44969066674295       0.000000000000000E+000
  6.901515847767520E-002   1.33981623380676       0.000000000000000E+000
  7.803246059749584E-002  0.672436149699299       0.000000000000000E+000
  6.952716016650171E-002   1.36120573279916       0.000000000000000E+000
  5.210276614890316E-003  0.971332545689198       0.000000000000000E+000
  8.384542822722268E-002  0.840959740515612       0.000000000000000E+000
  5.485777117193071E-003  0.995117648702990       0.000000000000000E+000
  7.202519552296448E-002  0.519742559031336       0.000000000000000E+000
  3.257215699947648E-003  0.947318955616308       0.000000000000000E+000
  6.734943540743030E-002  0.536397446947825       0.000000000000000E+000
  8.553834811012887E-003   1.01484019850837       0.000000000000000E+000
  8.401178372564262E-002  0.864092395015732       0.000000000000000E+000
  2.148365286564888E-002  0.989154109769138       0.000000000000000E+000
  2.367029716328761E-002   1.00558231537589       0.000000000000000E+000
  1.999911227834887E-002  0.631482152362259       0.000000000000000E+000
  2.302538501098399E-002   1.03013970177837       0.000000000000000E+000
  6.880632000238178E-002  0.849821875268904       0.000000000000000E+000
  5.074889408153125E-003  0.535291106390661       0.000000000000000E+000
  6.315790569127192E-002  0.504261125534928       0.000000000000000E+000
  2.389894641592763E-002  0.598062201590537       0.000000000000000E+000
  1.752103122272023E-002  0.648566530998154       0.000000000000000E+000
  6.497145271677217E-002  0.810832886170043       0.000000000000000E+000
  3.934452525597416E-002  0.745679948646871       0.000000000000000E+000
  6.899427522637396E-002  0.556629237310376       0.000000000000000E+000
