 variables= "x","y","f"
 zone i=          12  datapacking=point
   2.50000000000000        1.00000000000000       0.221878963683720     
   4.17437061374558       0.873093184468600       0.743960545518202     
   3.19235984151772       0.622605917607398       0.514553096061794     
   2.17367457939088       0.683111801109049       0.388473745597047     
  0.675928865185142        1.06004124093048       6.112671258194226E-002
   2.60916463578972       0.840409058851448       0.733709802848100     
   4.04821583446695        1.20959763087985       0.300227810883786     
   2.90898479676942        1.43465498992535       0.168410349631839     
  0.398388555734229        1.33732478901349       2.482483502388441E-002
   4.80736566951136       0.963183512152776       0.443505894103190     
   1.48571680072147       0.588925122997440       0.225293142728763     
   1.35136074320132        1.24636047867661       9.514588061714763E-002
