 variables= "x","y","f"
 zone i=          12  datapacking=point
   2.50000000000000        1.00000000000000       0.221286583624361     
   1.79808162615199       0.916099167027243       0.178730491338396     
   3.53970930376050        1.24233663705038       0.248568731036175     
   3.71245043842215        1.04276800993239       0.315994409519929     
   2.42724590136869       0.711033921065865       0.444378788540031     
   2.90368262241173       0.801656834454451       0.719253220798796     
   4.46656230323456        1.44641670162891       0.254477630069970     
   4.96717625103354       0.652777037524170       0.783805727403674     
   1.05852422204789        1.40548790541950       6.304897501866849E-002
  0.616600091466703       0.580681008362418       9.237654660090569E-002
  1.591924282278790E-002   1.05116216419500       2.329450459910867E-003
   2.10016868215860        1.15522090321000       0.157735244250494     
