 variables= "x","y","f"
 zone i=                    20  datapacking=point
   1.02284111764188        2.22763955548510      -0.994077554743744     
   1.13066424510776        2.33800908032511      -0.946984298812399     
   2.75396755339732       0.678613057905794      -0.957960899200288     
   1.45267003214913        1.60966427467126      -0.996860701143006     
   2.58523043043916        2.02746442610284      -9.952906393077161E-002
  0.967844431128176        2.55460958799950      -0.928344792994754     
   2.48135406692252        2.08334552063639      -0.147153074042336     
   1.23780282114436        2.86816535655324      -0.569930114981881     
   2.23201498907344        1.01514766851029      -0.994432660689330     
  0.515921403511482        2.50686468355219      -0.992950797354988     
   1.93102883159110        1.83473653868449      -0.811446883150467     
   1.76157265019351        1.81700568332511      -0.906031468813846     
   1.67153185699189       0.814519748942029      -0.792718227861607     
  0.715920543877896        1.11342053479138      -0.255673942968482     
   2.11658104088631        1.41892825059126      -0.923412909245562     
   2.37755422638206       0.927107757357648      -0.986733633742821     
   1.47388287207685       0.500077969525042      -0.392331098751601     
   1.98943100791603        1.33043380743727      -0.984151558181236     
  0.766950088527005        2.68100169614825      -0.953437933913502     
   2.85013789727454        1.51550718218517      -0.339837304508105     
