 variables= "x","y","f"
 zone i=                   101  j=                   101  datapacking=point
