 variables= "x","y","fpcb"
 zone i=         110  datapacking=point
  4.363323129985824E-002   1.00000000000000       0.000000000000000E+000
  7.285651140835690E-002  0.873093184468600       0.000000000000000E+000
  5.571719014292850E-002  0.622605917607398       0.000000000000000E+000
  3.793777827727376E-002  0.683111801109049       0.000000000000000E+000
  1.179718420674960E-002   1.06004124093048       0.000000000000000E+000
  4.553851362112930E-002  0.840409058851448       0.000000000000000E+000
  7.065469514281794E-002   1.20959763087985       0.000000000000000E+000
  5.077136259408448E-002   1.43465498992535       0.000000000000000E+000
  6.953191999827231E-003   1.33732478901349       0.000000000000000E+000
  8.390435928031485E-002  0.963183512152776       0.000000000000000E+000
  2.593064992478620E-002  0.588925122997440       0.000000000000000E+000
  2.358569435106056E-002   1.24636047867661       0.000000000000000E+000
  4.768513900557882E-004  0.816834055766737       0.000000000000000E+000
  2.252840191623259E-005  0.863278981267393       0.000000000000000E+000
  1.777511847506501E-003  0.764320247391602       0.000000000000000E+000
  1.552868660836120E-003  0.909322552777228       0.000000000000000E+000
  1.242894984281450E-003  0.509982777916178       0.000000000000000E+000
  7.236861567046469E-004  0.965291006607258       0.000000000000000E+000
  8.713102289605315E-002   1.47195715853297       0.000000000000000E+000
  1.432584371457199E-003  0.636909689854300       0.000000000000000E+000
  8.624673969510430E-002  0.502574346817786       0.000000000000000E+000
  8.722447471056594E-002  0.552956952236485       0.000000000000000E+000
  8.598673179251085E-002  0.802035980486897       0.000000000000000E+000
  8.312611114282410E-002  0.759918749821000       0.000000000000000E+000
  8.572621313758405E-002  0.650303522188900       0.000000000000000E+000
  8.659599548076435E-002  0.708559606648540       0.000000000000000E+000
  1.029719936947153E-003   1.48803043134176       0.000000000000000E+000
  4.686496378587237E-002  0.793089402907504       0.000000000000000E+000
  5.269285675963210E-002  0.533611245916609       0.000000000000000E+000
  4.655827133240250E-002  0.946801486234331       0.000000000000000E+000
  8.623741583982117E-002   1.31167887516006       0.000000000000000E+000
  8.688468477594027E-002   1.27326990130177       0.000000000000000E+000
  8.510519716053115E-002   1.34604391078091       0.000000000000000E+000
  8.610596722626754E-002   1.09876228731264       0.000000000000000E+000
  8.537137841786488E-002   1.13750652754734       0.000000000000000E+000
  8.385042675015852E-002   1.06231321650554       0.000000000000000E+000
  8.567919299815041E-002   1.39022367304498       0.000000000000000E+000
  5.531431084532314E-002   1.11955774704696       0.000000000000000E+000
  6.121762438705038E-002   1.16314863287400       0.000000000000000E+000
  5.434423427837887E-002   1.08417042840726       0.000000000000000E+000
  8.548535535867359E-002   1.02820231984301       0.000000000000000E+000
  5.087929785928711E-002   1.32725517306607       0.000000000000000E+000
  4.211632530681396E-003  0.556017989128910       0.000000000000000E+000
  3.510940982258461E-004   1.14868722898688       0.000000000000000E+000
  7.477238270577298E-004   1.18428372188080       0.000000000000000E+000
  1.018595765745279E-003   1.10425237203036       0.000000000000000E+000
  1.175587752180407E-002   1.43021211845090       0.000000000000000E+000
  1.460158652915119E-002   1.40423131951983       0.000000000000000E+000
  1.082826342580766E-002   1.46025594378344       0.000000000000000E+000
  5.945223322663565E-002   1.49903652854836       0.000000000000000E+000
  3.206078978860275E-003  0.602318003524529       0.000000000000000E+000
  2.559342602724173E-002  0.501526045134803       0.000000000000000E+000
  1.144165547622672E-002   1.37639815351571       0.000000000000000E+000
  2.449059756253959E-002  0.538592186372035       0.000000000000000E+000
  6.652345357613371E-002  0.984023098463803       0.000000000000000E+000
  6.489634066795036E-002  0.680698437580447       0.000000000000000E+000
  8.011860410111914E-002  0.526566295936942       0.000000000000000E+000
  7.843378343860827E-002  0.573807589647297       0.000000000000000E+000
  7.709150158268949E-002  0.599110944555887       0.000000000000000E+000
  2.566380215545136E-002  0.828868003856914       0.000000000000000E+000
  2.483708265692647E-002  0.806430711477659       0.000000000000000E+000
  2.649054131818131E-002  0.851071913141810       0.000000000000000E+000
  7.679352010279179E-002  0.630900765394632       0.000000000000000E+000
  2.189732231453110E-002  0.778580316225793       0.000000000000000E+000
  2.048308696098305E-002  0.871806553846818       0.000000000000000E+000
  5.316245147794996E-002  0.720241129334060       0.000000000000000E+000
  6.049203347270703E-002  0.508978081581558       0.000000000000000E+000
  5.881812925403548E-002  0.744832086241353       0.000000000000000E+000
  2.258100941039574E-002  0.748295025000499       0.000000000000000E+000
  2.099034858254632E-002   1.49597932231136       0.000000000000000E+000
  8.606963263600165E-002  0.932280248399512       0.000000000000000E+000
  2.767338801601867E-002   1.12446109746230       0.000000000000000E+000
  7.169706664949101E-002  0.816889906289709       0.000000000000000E+000
  1.143831948743322E-002  0.933107264433983       0.000000000000000E+000
  6.983488278357435E-002  0.837000726824910       0.000000000000000E+000
  1.643514579711999E-002  0.977331734326031       0.000000000000000E+000
  1.512430528959433E-002  0.996993957595672       0.000000000000000E+000
  6.586207915158719E-002  0.928941481810167       0.000000000000000E+000
  2.064924121135189E-002  0.914034168718645       0.000000000000000E+000
  1.655615998898270E-002  0.952343081134419       0.000000000000000E+000
  6.625182859947090E-002  0.908042513571097       0.000000000000000E+000
  8.643657249031833E-002   1.49757474417408       0.000000000000000E+000
  9.444108497238944E-003  0.715076680018082       0.000000000000000E+000
  1.293194406950201E-002  0.892626086262394       0.000000000000000E+000
  3.461244097771896E-002  0.969166142813387       0.000000000000000E+000
  9.260360001458304E-003  0.693939430950278       0.000000000000000E+000
  9.576360079629457E-003   1.01848087153271       0.000000000000000E+000
  6.028788427009409E-002  0.856757945064065       0.000000000000000E+000
  7.533624052478467E-003  0.671306566238328       0.000000000000000E+000
  3.391394545189808E-002  0.932125580299475       0.000000000000000E+000
  3.546670956225283E-002   1.04987326791359       0.000000000000000E+000
  7.439588609495285E-002   1.11532679369993       0.000000000000000E+000
  8.562020263764303E-002  0.851195632910613       0.000000000000000E+000
  1.635031269062662E-003   1.04020885764337       0.000000000000000E+000
  7.291072362874608E-002   1.08733394796469       0.000000000000000E+000
  6.873600724761109E-002   1.40887093380682       0.000000000000000E+000
  4.464522832434865E-002   1.48874261635152       0.000000000000000E+000
  7.015244044430281E-002   1.38063043979202       0.000000000000000E+000
  7.074224665546509E-002   1.43290791336561       0.000000000000000E+000
  6.773585351800651E-002   1.36338217092515       0.000000000000000E+000
  6.659528370236975E-002   1.02264304060278       0.000000000000000E+000
  7.563903539651648E-002  0.728888865128221       0.000000000000000E+000
  7.823238460235066E-002  0.693537726949181       0.000000000000000E+000
  4.231345135040104E-002   1.47081114277755       0.000000000000000E+000
  6.601242779108768E-002   1.04114987107648       0.000000000000000E+000
  7.213038277068722E-002   1.45501697493739       0.000000000000000E+000
  7.120444417205712E-002   1.48359271561183       0.000000000000000E+000
  3.077021836401626E-002   1.03222253810063       0.000000000000000E+000
  1.412897150383969E-002   1.16197240413804       0.000000000000000E+000
  8.621345286505527E-002  0.777775085042917       0.000000000000000E+000
