 variables= "x","y","f"
 zone i=          12  datapacking=point
