 variables= "x","y","fpcb"
 zone i=          12  datapacking=point
   2.43295365783916        1.63356334355548       0.000000000000000E+000
   1.65212735418419        2.29911514449331       0.000000000000000E+000
   2.05444179774414        1.85323354268518       0.000000000000000E+000
   2.50329473411102        1.29615200138228       0.000000000000000E+000
   2.74959620681381        2.55168727292718       0.000000000000000E+000
   1.46344803015395        1.95799613293427       0.000000000000000E+000
   1.54604287592965        2.16600629997503       0.000000000000000E+000
   2.21761579052877        1.56788371669137       0.000000000000000E+000
   1.96859149912278        2.67162649213166       0.000000000000000E+000
   1.36732583963500        2.40145329817825       0.000000000000000E+000
   1.77038684948025        1.47558250526859       0.000000000000000E+000
   2.26677923266072        2.11516613849770       0.000000000000000E+000
