 variables= "x","y","fpcb"
 zone i=                    12  datapacking=point
  3.762845847764384E-002  0.674742006753542       0.000000000000000E+000
  2.326446186460730E-002  0.888907528732592       0.000000000000000E+000
  5.642210710928670E-002  0.843835421007453       0.000000000000000E+000
  4.460892689531539E-002  0.816920888966416       0.000000000000000E+000
  2.732815981141489E-002  0.639380873571034       0.000000000000000E+000
  2.098995990859604E-002  0.624342121124073       0.000000000000000E+000
  1.230844491111623E-002  0.718029753894539       0.000000000000000E+000
  5.960790393803631E-002  0.726073721505679       0.000000000000000E+000
  1.541483650517493E-002  0.796037346901676       0.000000000000000E+000
  4.848020432765453E-002  0.774689395130561       0.000000000000000E+000
  3.474009639875016E-002  0.679663981243100       0.000000000000000E+000
  4.234944010697460E-002  0.862532756913506       0.000000000000000E+000
