 variables= "x","y","f"
 zone i=                     6  datapacking=point
   1.12009354235100       0.909177648535114       7.911568675836046E-002
   1.02619128309533       0.882072285917480       7.419356430104425E-002
   1.11216257653056       0.788909443547768       8.624417086629801E-002
   1.04451478960203       0.834351045614580       7.887810898692045E-002
   1.08290108885166       0.938023659937209       7.466359654567342E-002
   1.16774104640152       0.763652583620870       9.137175173975103E-002
