TITLE = " "
VARIABLES = "x" "y" "f"
ZONE T="lsample", I=   30, J=    1, K=    1, F=BLOCK
     4.02060706     4.34287545     4.20771033     2.98750206     0.11371816     1.26116495     3.56591118     4.60258095     1.07804790     0.75098017     3.39041545     0.37917073     1.88913807     1.41019024     1.56739452     0.19975949     4.69105744     2.60236900     3.68247607     3.87530228     2.37203981     2.03976632     0.51917507     2.27537993     1.81044526     2.82019345     3.15792145     3.18589192     4.95213890     0.93184972
     1.11964360     1.31662603     0.86697880     1.14598636     1.42603588     0.55172764     0.71975613     1.27466527     1.03244673     1.06551682     0.67458405     0.90076891     1.48978542     0.62358377     0.63902324     1.09692734     0.75776975     0.80282896     0.84636851     0.78222759     1.26573404     0.99206310     1.20449241     0.50398096     1.37470287     0.59782669     0.93980103     1.16922373     1.34331287     1.45933803
     0.12212553     0.11796609     0.13774839     0.11149149     0.09688799     0.00387973     0.02633353     0.11794357     0.10737239     0.10465402     0.01047989     0.09448668     0.09944889    -0.00010388     0.01268740     0.10156691     0.07437618     0.03460846     0.08911273     0.06171495     0.10341344     0.11357634     0.09745685     0.01046338     0.10030505    -0.01170150     0.12382289     0.11244900     0.12306775     0.09770850
