 VARIABLES = "X" "Y" "RO" "U" "V" "P" "M"
 ZONE T="  0.000000000000000E+000 " N=        2335  E=        4433
 ZONETYPE=FETRIANGLE DATAPACKING=BLOCK
 VARLOCATION=([3-7]=CELLCENTERED)
  0.992923958965965       0.987080120502813       0.980624721358346       0.973491277813683       0.965606488787114       0.956888827068065       0.947246481783679       0.936857352540147       0.925917769539762       0.914395326650750       0.902255549555057       0.889461956152511       0.875976224993247       0.861757679632930       0.846762667710730       0.830945293642019     
  0.814256956546182       0.796645703816955       0.778056599147963       0.758431282120653       0.737708285214564       0.717539776877285       0.698326195889597       0.680026457773633       0.662601366837424       0.646013920687456       0.630228923678052       0.615212832975913       0.600933872911166       0.587361168141409       0.574465129890396       0.562217323383842     
  0.550590073738509       0.539556338135178       0.529381872759407       0.520231689235659       0.512005419389727       0.504611650796299       0.497967703615078       0.491998442207659       0.486635777016499       0.481187743947000       0.475637245076669       0.469983454043617       0.464225409075573       0.458361560168693       0.452390062169254       0.446308571113114     
  0.440114317101372       0.433804103610970       0.427374396426714       0.420821369630510       0.414141045837516       0.407329377544813       0.400382249399856       0.393295696426923       0.386065650152363       0.378688512158598       0.371159881460021       0.363476416205843       0.355634561899532       0.347630077406638       0.339459653655429       0.331119245411437     
  0.322604853629693       0.313912670516649       0.305038211315431       0.295977150808393       0.286725221197982       0.277277560339115       0.267629806587846       0.257777549553412       0.247715602096582       0.237439803876897       0.227052605062414       0.216873036678847       0.206897478136300       0.197123950561381       0.187550787265199       0.178174202291541     
  0.168989730340756       0.159996697919552       0.151194356390528       0.142582458484020       0.134158890871455       0.125916785467100       0.117856938233894       0.109981182940819       0.102291153432161       9.477930117182913E-002  8.744384483951316E-002  8.029011087420368E-002  7.332224144082818E-002  6.652923187124889E-002  5.991773276694474E-002  5.350076487980774E-002
  4.726949899172584E-002  4.123326095563168E-002  3.540791171335403E-002  2.978671351496220E-002  2.440649257153037E-002  1.926042232976362E-002  1.445641881963846E-002  1.002935136668989E-002  6.223335932255386E-003  3.181825208017128E-003  1.116332768094442E-003  8.045337226460497E-004  3.106835198383589E-003  6.876180358996421E-003  1.207981894221929E-002  1.860749464310937E-002
  2.625078795835924E-002  3.497502540413139E-002  4.482761832000870E-002  5.486851758925621E-002  6.500128426674648E-002  7.521143494059164E-002  8.547038245518146E-002  9.577758846242125E-002  0.106120050512748       0.116492550437449       0.126894032255570       0.137317936491442       0.147759800028889       0.158218115826282       0.168689320937137       0.179169861600438     
  0.189656988356394       0.200148793982632       0.210642947189936       0.221137903223819       0.231632620276584       0.242126455588870       0.252618569299748       0.263107836026889       0.273593929420409       0.284076832068216       0.294556924227760       0.305034244127719       0.315507844249803       0.325977429733002       0.336443080458590       0.346904873550261     
  0.357363384252733       0.367818789451782       0.378270743471394       0.388718535945333       0.399162328392411       0.409602393123852       0.420039000382693       0.430472620625535       0.440902838058287       0.451329231171428       0.461752054841031       0.472171464870479       0.482587566737285       0.492999949272861       0.503408801371575       0.513814709797603     
  0.524217660273906       0.534617546633574       0.545014474354120       0.555408585940149       0.565799444915704       0.576186722150263       0.586571346637039       0.596953447092728       0.607332649576100       0.617709450051387       0.628084489544750       0.638456485114211       0.648826355211790       0.659194099148090       0.669559809791240       0.679923675635079     
  0.690285900340150       0.700647001330549       0.711007493272794       0.721367777972800       0.731728634224167       0.742090938514387       0.752455766165729       0.762824386509461       0.773198659866009       0.783580463101286       0.793972295093160       0.804377051699646       0.814798220457306       0.825239485669290       0.835705114355154       0.846199722256919     
  0.856727910639297       0.867294872445552       0.877905610056921       0.888565316616930       0.899278360775141       0.910048474691861       0.920878125332498       0.931768938672280       0.942720805842549       0.953731637761789       0.964796117960173       0.975906948011864       0.987051402694859       0.998215629244877        10.3004800000000        9.70989700000000     
   8.75177100000000        7.46426000000000        5.89863100000000        4.11723600000000        2.19103800000000       0.196810700000000       -1.78589700000000       -3.67789800000000       -5.40348300000000       -6.89339200000000       -8.08753700000000       -8.93736500000000       -9.40778000000000       -9.47857100000000       -9.14527300000000       -8.41946000000000     
  -7.32845700000000       -5.91447300000000       -4.23320000000000       -2.35185600000000      -0.346770100000000        1.69947500000000        3.70124200000000        5.57335500000000        7.23478100000000        8.61234000000000        9.64426800000000        10.2834400000000        10.5000000000000       0.840663385459723       0.525408638018088       0.602964371643707     
  0.897423849854176       0.870553025514791       0.943385059401785       0.921609574701145       0.415221012333822       0.949683612170798       0.519676423593327       0.996488665096396       0.639462524682421       0.984739914128740       0.467417718271831       0.970609643229430       9.114464993793222E-003  0.953330777635103       0.389930145395409       0.359750903670525     
  0.375154835368550       0.411013762654479       0.343707685453414       0.120898295455217       0.437258417240520       0.473124812799391       0.326978339474132       0.569247059327220       0.309535108034779       0.655758510815543       0.291343525805536       0.789348547735191       0.272366189543412       0.978026006626200       0.252558680625664       0.300535821441038     
  0.231933330340670       0.221596768078606       0.211469973724570       0.182265488856084       0.191798278042815       0.163800241351919       0.172941780328080       0.137479713830401       0.154841016799290       4.233133746117273E-002  1.931303901441764E-002  3.625774994391593E-002  4.492520892912188E-003  2.473168744688469E-002  3.041357884835698E-002  5.878140643674575E-004
  0.367532805907864       0.201537389075117       0.318348031845698       0.242331288488736       0.281957369789113       0.262565202055938       0.351814779733794       0.335430318505837       0.884343546999647       0.382610785378170       0.990808964941598       0.962412621997283       0.909834080560241       0.932784426588930       0.824474455241614       0.856007284489879     
 -2.425053851471410E-003  0.495341638421341       0.545839974291703       0.770296670120090       0.690868111226410       0.729592897105875       0.595209669421034       0.623962223495731       0.484227734739986       0.508771786353866       0.449655201905853       0.461605073787920       9.733783738685971E-002  0.424387714911508       0.516645994027417       0.417765645785827     
  4.858606159443095E-002  7.537417207704616E-002  8.985786575345661E-002  0.104995941604662       1.402962526677406E-002  6.164136735461302E-002  8.253257070273515E-002  6.842971230827123E-002  0.478727468508654       0.112861288966202       0.750128062891951       0.489643220790888       0.397100551145800       0.129102998785338       0.557241459387855       0.443513906174651     
  0.501696951883393       0.609222627026251       0.535155245479385       0.672881613142445      -4.139748806952355E-003  0.477944423394956       5.716237070165434E-002  0.183646714689313       0.488386561918926       0.394275829406162       0.960755779134984       0.789887773820223       1.110727878745924E-002  0.509251492569223       0.994062599847181       0.916832647214997     
  0.810734350861515       0.983055701903988       0.927722304603328       0.457054098685466       0.436141885297080       0.686051606820053       0.665291923944352       0.727558041591556       0.706805566311555       0.769087749478131       0.748315096047568       0.852684820679287       0.831654432093925       0.895234177206620       0.873865301693138       0.863253750112412     
  0.906002923181929       0.938672504960066       0.842153386741989       0.884523242330736       0.737935337763209       0.821183182034798       0.779483544134482       0.800303482458451       0.717181568931738       0.758698915458546       0.613357742266845       0.696428900896949       0.634138804639199       0.675672802703507       0.644525215886697       0.654909477255341     
  0.592564400653370       0.623745508455097       0.173089029746930       0.582164104860904       0.540518340839850       0.561348280447271       0.571760671062379       0.530099466493051       0.550934047830119       0.151931876440210       0.162516199747890       9.919054369848297E-002  0.141351157924852      -4.283773852596716E-005  6.768430931021466E-002  0.120270187505966     
  0.130817872672392       8.868302037222012E-002  0.109705356377965       1.846091600736990E-002  7.814785711166161E-002  0.194220340815124       2.685974208847582E-002  4.761598571927201E-003  0.709761211785515      -3.152751425098723E-003  0.430884281467089       4.671653814293036E-002  3.639037049779798E-002  0.257613464869395       0.225949674129671       0.215385591262358     
  0.204808527373104       0.247051350975744       0.236499788650682       0.310278921235619       0.268164879681315       0.289234538466050       0.278705262988905       0.320803527670374       0.299753257923585       0.331319095285158       0.352323499658480       0.373300843776168       0.404752150675205       0.446600869618260       0.467501662145700       0.425682366705903     
  0.383792039063766       0.362812818665764       0.807388027009674       0.341825686087849       5.500534222494245E-002  0.971878219400689       0.498822574677359       0.581893056258022       0.455684945881648       0.146064411870376       0.404126061866320       0.801746520982639       0.665219911819455      -2.195866587708266E-003  0.393961139407648       0.158261444679721     
  0.851321207782089       0.215851553918368       0.132040298184278      -9.018368170020904E-003  7.869589564275399E-003  0.906147776400746       4.310554209560655E-002  0.512409334415084       0.226228373324441       2.663946607369070E-003  0.140559605972178       0.123659411164115       0.540470331301364       0.950595908022003       0.364057044319378      -6.185549867758914E-003
  0.389411532308290       0.956914799777131       9.240161605535462E-003  0.945826515804985        1.00385737002367       0.378876561425885       0.785986054874415       0.661179741341086       0.912960487109536       0.934808065528063       0.902130829626307       0.577887067020452       0.410446418886047       0.515238012493703       0.650778610609852       0.399933830491788     
  0.294421039010729       0.775565708043863       2.659954422042082E-002  4.841657140633494E-002  2.152967406435655E-003  0.188081786808080       5.935245382602306E-002  0.598730985234415       0.326163308090939       0.315583291582487       1.335987415434102E-002   1.00534984523833       0.682878219918294       0.866143503320320       0.440871423160298       0.918134979332683     
  0.923857289437491       0.575998661070179       0.379322378813671       0.371776214894463       0.386717088408764       0.414869113794364       0.421557992131018       0.481961690993862       0.648413278666936       0.701430445247395       0.783334648977818       0.976362895131240       0.983239260984693       0.296159369441341       0.305289756912697       0.186149222754127     
  0.167377008639866       0.176663660851398       0.149318485599101       1.896350824242111E-002  3.675185261914979E-002  2.470740583035570E-002  3.064226755173140E-002  0.195855281715853       0.205761347747771       0.314227754656632       0.322977545358316       0.236866275452888       0.247392415377361       0.277300690002954       0.286833264205672       0.257597203179510     
  0.267554217983078       0.348146737914687       0.356183590141626       0.331545933818207       0.339933842065932       0.880192397640038       0.893512345853395       0.530026066462208       0.991560215780313       0.960264024185819       0.968767363458795       0.929506846001702       0.940352787912687       0.819175842759554       0.835682081968998       0.721037224937085     
  0.589042410117132       0.602776379292611       0.617226399195402       0.632426167147490       0.498254837431223       0.470759641330122       0.447070824468118       0.453156862733178       0.459132727601609       0.464999471941017       5.620275077212251E-002  0.428119637732130       0.520712448187771       4.954931415524307E-002  7.713133062489680E-002  8.447489599412246E-002
  9.195571852704863E-002  9.958885856966733E-002  6.303420211801086E-002  6.998669331726601E-002  0.107429957247675       0.115468103092919       0.742030374392585       0.763399416376274       0.492421796716454       0.487236145515425       0.551782479846090       0.563617974089524       0.476414077528367       0.504952000421413       0.483854669579272       0.473381355188684     
  1.737233641505984E-002  0.891364534565821       0.765154960917583      -9.732287861246148E-003  0.848820691659246       0.991927237420455       0.462905057268688       0.452422381364621       0.441930644506326       0.723558858154622       0.681980018222641       0.671580160862685       0.640374651815736       0.713164946672523       0.754750676094458       0.838287883645692     
  0.880657356456136       0.870000853385287       0.859390201290657       0.744348326595269       0.733955186299190       0.827786035468752       0.817309967069117       0.806853099431875       0.796410271724927       0.609148451032153       0.702771121183658       0.692373432167895       0.629964419626288       0.619554785460082       0.177404853755447       0.166736803972430     
  0.588309648252040       0.567455608156818       0.536132021337174       0.525687911859308       0.557015376041943       0.546575847751200       0.156028204736208       0.145295650167044       0.134600281270805       9.172938492280353E-002 -3.771899304677722E-003  0.123919635885619       0.113178120862352       0.102440165615289       8.095353773217635E-002  7.017196340649381E-002
  0.251994581288135      -7.821585245241401E-003  0.434556670495411       3.731527867922012E-002  0.220109006283792       0.209447874596024       0.198758689572184       0.241360089069002       0.230740848191687       0.304996942370965       0.262631754433416       0.283844824723245       0.273248668550666       0.431437297283372       0.420944591784206       0.368341843566690     
  0.357813431779498       0.347278188592148       0.336728300963611       0.979273639754226       0.968060695490187       0.504785662445151       0.494325918887545       0.401083166131705       0.408045066365803       0.778872554825979       0.441604694955979       5.005071402964477E-002 -5.248389789994872E-003  0.289016903371864       0.181687410214358        1.00071902388161     
  0.373975935449539       0.305835793813329       0.394664900229719       0.656580478628558       0.161316483827493       0.231017186508074       0.569323445366794       0.815796355792831        1.00235850017819       0.364759788789675       0.487396943530455       0.477130443713971       6.249779690654637E-003  4.339893583337086E-002  0.959197044436817      -8.329821711021822E-003
  0.568523768852667       0.947717045319437       0.516150879016596       4.998090147929821E-002  0.246233098058844      -1.654071501347193E-002  0.256960624245544       0.652037468121298       0.798126159507970      -1.028021010965717E-002  0.863383947407074       3.895511707178017E-004  0.916004156630234       0.514924296407441       0.220021957568631       0.134606048816013     
  5.692835803939981E-002  0.126094998770412       0.545144928522829      -1.428800713934676E-002  5.978165177913345E-003  0.384565204372423       0.777070744824712       0.914715661440934       0.410987902443957       0.395150138641255       2.579608300431470E-002 -1.600350764419351E-003  0.631179193485314       0.320959211215181       0.673876362391300       0.931136143291295     
  0.323581818440862       0.380042250988730       0.422302294004851       0.494253923638913       0.692050411948579       0.711296475303447       0.170581777675827       0.180033116166090       0.143271764973302       0.152206538087333       1.218552901159051E-002  1.809471649438250E-002  3.682007495692576E-002  2.413341353205483E-002  3.034393805208181E-002  0.189697890831112     
  0.199582710364620       0.209651691169191       0.582062453219050       0.242186092602933       0.252809844902975       0.277723547081800       0.292038330043184       0.262977927784949       0.336424636752402       0.877607750641210       0.891091559783800       0.903875261508310       0.979788089298016       0.990231896632470       0.968595297700732       0.927505843940195     
  0.938499246596226       0.948960137999332       0.832528446745951       0.848370548990557       0.595484271505017       0.609615150699454       0.624482811754193       0.640126907324084       0.453883770239986       0.465721597254488       0.523628055468911       7.844050497043914E-002  8.595310049538336E-002  9.359302987854051E-002  6.393455920620678E-002  7.109371311588697E-002
  0.101408628225245       0.109441408378141       0.117643399496743       0.732566697239157       0.756318309279998       0.344744877049717       0.557126774118544       0.352887600744510       0.500249486824900       0.507190565795733       0.474159263297889       1.499818294755653E-002  0.893065101102006       0.756225649183727       0.453122006526224       0.724964401055457     
  0.672878586689336       0.850444559060556       0.871658913358118       0.740591254731264       0.829380486851949       0.808421799886401       0.792733238215761       0.610316827266128       0.704143847630161       0.688513016186919       0.170850803906455       0.589432673882702       0.531873622688990       0.547588587469074       0.160019502401129       0.149132278049706     
  0.138246387133303       0.127390429021596      -1.620072819276571E-002  0.116482251063069       0.105522167239165       9.455881524586039E-002  8.354998781790172E-002  7.246335016701133E-002  6.132261812533035E-002 -1.344361036786926E-002  0.432108290812751       0.533707237117629       3.816943069004999E-002  0.214059890981800       0.203268556614107       0.192482067170441     
  0.235517218426092       0.224806495810800       0.310305933193757       0.299655787085166       0.278362380856174       0.267678511417758       0.432058674180011       0.363393227472509       0.352813612935776       0.342217212327418       0.331600558301862       0.989191081610275       0.975712736645589       0.964442718212894       0.495175100151173       0.408792060303805     
   1.01383442966538       4.120025070341333E-003  0.796728816706047       0.580428309671903        1.01363592462992       0.941490891131302       0.970117159366646      -8.739949506213767E-003  1.968523465043996E-002 -2.504065337401123E-002   1.01217468142297       0.374371978226375       0.643075204270235       0.884240247437499       2.494723356549126E-002  3.884898336687160E-002
  0.823219749870849      -2.006685634584538E-002  4.657653278470434E-002  0.672212887573718       0.271326460543227       0.388531214139349       0.253403385207218       0.883722407217511       0.230443735719769       0.555113158224024      -2.367577026485400E-002  0.169475286030538       1.088949786586127E-003   1.00231856769997       0.682258469015995       0.697937218588180     
  0.443364087475614       0.245739833240786       0.288877756424953       0.774437088425213      -1.484769965893676E-002  0.504200038812965       0.168683787570165       0.331181578615817        1.00133084621033       0.492239644806648      -2.469653199028410E-003 -1.442506491204855E-002  5.719287985933737E-002 -2.042862289228821E-002 -2.411281566871491E-002  0.520247457944535     
  6.073593512595268E-002  0.905807310898950       0.750130436898964       0.525121405640367       0.390338887096554      -7.411381285148779E-003  0.924901801626863       0.132550367437609       0.150142444974875       1.029526431053608E-002  3.298387674927705E-002  0.187945857331103       0.208085877286434       0.710352772372793       0.373635903365015       0.909421459280473     
  0.990248783622014       0.980388796215061       0.932587679273011       0.953884987793774       0.855112660498402       0.315854360230198       0.607953606298888       0.300038040412449       0.285917490916673       0.638457544560962       0.483122318810668       0.448904591145925       0.460942851010424       8.313578325590699E-002  7.172764288102927E-002  9.880333821065201E-002
  0.115256387708537       0.746787377615840       0.345800999999583       0.360051651350796       0.472551115103245       1.144408666071420E-002  0.862907239592132       0.464509466059597       0.663976016536159       0.768401735021983       0.734460868707326       0.841752827048870       0.820729152136097       0.802387126576356       0.786684016882033       0.716200995717993     
  0.622161953205015       0.601234889068705       0.580278612170331       0.559291048218120       0.540907554822731       0.147376382025995       0.125219627278740       0.102862964277370       8.024760886939902E-002  0.438039148428170       0.428407981903545       0.536215056452756       0.202336915232396       0.186074409131600       0.224101176775348       0.310318830974204     
  0.267370537377819       0.422203158635880       0.403671549189389       0.353095372828833       0.331755602359458       0.985956942365371       0.972173403313258       0.958234390231797       0.506704982236739       0.485626036875780       0.402919683934035       0.416775829524623       0.433643082384394       0.917478660900742       0.195286951991797       0.564208493828975     
 -3.448821413494052E-002 -1.551465951006793E-002  0.935406986831723       0.490301663329636       0.897115766677582       0.534379109209716       0.321149303170520       1.424079225264709E-003  0.879762331504224       0.766990942439596       0.435032479636383        1.01170515420547       0.216746214669672       0.993804575167329       0.798482570375505       0.479326177789992     
 -2.009515225505112E-002 -1.307963041530233E-002  0.984428892664411       7.396913440120937E-003  0.974979707520726       8.807323498956324E-002  2.428962535763599E-002  0.650772693532983       0.634337869586535       0.176299777229235       0.875653924765320        1.02511673128435      -5.976688623292580E-003   1.02425729773517       4.276014547367478E-002 -3.155833149328785E-002
  9.100882697516081E-003  0.103334304657110       0.468432510238223      -5.388234702422174E-003   1.00333979947427       0.691986014549424       0.517186261425162      -2.647610049722871E-002  0.551545370879990       0.341626324240189       0.353636388226759        1.00213420755613      -2.273785377584811E-002 -2.894712059983805E-002 -3.351672364757265E-002 -3.511830627194833E-002
  7.346329129622108E-002  0.138113745589306       0.156471356027434       2.102143419029709E-002  3.519823896822419E-002  0.175435867470726       0.262907541435734       0.242971425872395       0.120792958863204       0.905912158876320       0.969461919188636       0.929394641944851       0.950644458966093       0.823225606114057       0.850617319340989       0.521804144448408     
  0.325437963758377       0.590056072236342       0.309862030289848       0.294840591377430       0.618851525073283       0.280437993097950       0.506158974950414       0.456645250233976       4.922842227971669E-002  6.195715238615571E-002  8.711787138371491E-002  0.685875656583777       0.725014859036195       0.541338392766150       0.368796252288461       0.854417098296423     
  0.454911229575937       0.674948191328115       0.655308650101664       0.761319709130524       0.744309488575376       0.833336905155773       0.813662706120023       0.796629207339727       0.779614930713684       0.727302865759486       0.709008738653650       0.613352818255979       0.592343909855815       0.571295603932729       0.156511342871853       0.133842734307643     
  0.111173546580811       6.456333929910521E-002  0.445238143190477       0.397467025861057       0.382973489675957       0.192959170106020       0.234147286414572       0.212247656151270       0.299483349079055       0.277893736229987       0.256050978046634       0.389325440614388       0.413689797494358       0.364149052258368       0.342739355915460       0.952209956850361     
  0.497356971656936       0.476154489065740       0.411714783750393       0.424446658144095        1.01743137357682      -4.486440940105360E-002   1.02076196748018       0.888646185268008       0.846226960455889       0.343982802285827       0.988876670725498        1.00132527880361       0.202071003696682       0.310320230471724        1.00319420724125       0.363331790706650     
  0.480075521617809       0.228937793680449       7.890566017884201E-003  0.930372657730273       0.906984491653030       0.107298819144923       0.437645048260269       0.378827518273598       0.867336383132730       3.684812277490818E-003  4.833051565905376E-002  0.937479750306913       0.424625940577274       0.183247898250659       0.254647761133564      -4.715502556227891E-002
 -2.583305440716498E-002  0.909574759627936       0.625855564464424       0.332204702914691       0.659048211146955       0.799506253174491      -2.620286254558895E-002  7.179791552803785E-002  2.589132996435813E-002  0.273738679808531        1.02576822113982        1.00824288266506      -1.848440182943988E-002   1.03805222937985      -5.873592522342309E-003 -1.341045410033023E-002
  0.535991588868324       0.508740015669525      -4.042263767389227E-002 -3.390861048979493E-002  0.298030631530107      -3.408999572335071E-002 -4.006958377225867E-002 -4.484393499456474E-002 -4.715225672685287E-002  0.142894059455827       0.125299927144530       2.181675952939588E-002  0.161724626214940       0.181225209561950       0.970116513424819       0.951403834566996     
  0.826743409561320       0.880897046770361       0.854681151470541       0.453531615928527       0.570094494571195       0.596695240772106       0.320715536358762       0.626532166327631       0.504533763097055       0.465054230036257       3.633381860856421E-002  4.977841601746511E-002  6.216628778376927E-002  7.498043173826474E-002  9.000502942039315E-002  0.745647243385764     
  0.696543385191524       0.545690840502874       0.392856165688528       0.445363258570495       0.694223752177765       0.667297719018595       0.646916032977250       0.764064308169781       0.825877491484536       0.799052631794269       0.738178770618214       0.720461025879323       0.604785451552965       0.583668941294354       0.563172886602713       0.164322378541649     
  0.142523283134735       0.119299519664483       9.582730410127228E-002  0.222177390773961       0.201340679518403       0.288494300137169       0.266551117960252       0.244354970566816       0.400982653317175       0.377147409381988       0.353879557503034       0.968256534129543       0.488109535014302       0.466752920118171       0.407295156269720       0.420885993994595     
  0.522655878135240       0.412811313893734        1.02235717333005      -5.664083153621917E-002  0.546467986989613      -4.259554759369517E-002 -6.040630162873964E-002   1.02076997449743       0.849039716969057       0.267439577327581      -3.859893698961048E-002  0.890939667383103       0.711712769594824      -2.200997772543699E-002  0.975238020865111       0.957664337791168     
   1.03707513668156       6.158971702028797E-003 -6.210247952797248E-002  0.662671248929202       0.299304379941383        1.03403035394411       0.914743918075159       0.783460513662756       0.496053256591423       0.110342286240048       9.171208776991477E-002  0.731871050791817       0.996318641625512       0.181453057663256       0.433354573471698       0.815253999216490     
  0.524171351046052       0.374905323086498        1.01098062085522       0.212014440166725       0.242645731936052       0.994918684226563       2.062918471715660E-003 -5.058911895059996E-002  0.321427553361337       0.449488084619681       5.429266121771582E-002  2.970502364298534E-002   1.01977480435977      -3.371604861240104E-002   1.03968020401954      -9.083625362690889E-003
 -2.155201591809501E-002  0.617672233637123       0.489506071052417      -4.867181706070488E-002 -5.483718950041888E-002 -5.975835584587865E-002 -6.226380637062492E-002  0.128223055163735       0.146155092018826       0.165417868965911       0.185722150642892       0.937377465041065       0.850276323115903       0.891119952327781       0.628353577492225       0.357605721404832     