 VARIABLES = "X" "Y"
 ZONE T="  0.000000000000000E+000 " N=        2335  E=        4433
 ZONETYPE=FETRIANGLE DATAPACKING=BLOCK
 -0.315957404763989      -0.312108050134491      -0.307846376838919      -0.303124252432048      -0.297894804388813      -0.292105365178195      -0.285690435636341      -0.278767864134302      -0.271466731730083      -0.263762206660973      -0.255627609581186      -0.247035878728006      -0.237960015282723      -0.228370827274063      -0.218234649620876      -0.207517622042759     
 -0.196183944925017      -0.184193840157729      -0.171504147695540      -0.158068412338959      -0.143837961886912      -0.129945947637079      -0.116672765922075      -0.103996129763732      -9.189424024946369E-002 -8.034392957803083E-002 -6.932329246700697E-002 -5.881415702541659E-002 -4.879795217303584E-002 -3.925473145643621E-002 -3.016563306516262E-002 -2.151514895605044E-002
 -1.328670376050867E-002 -5.461826101780254E-003  1.769338158975731E-003  8.286346329039462E-003  1.415533086219567E-002  1.943842846397503E-002  2.419269108263511E-002  2.847006202495023E-002  3.231776208838172E-002  3.623174022292147E-002  4.022461512629461E-002  4.429672736873452E-002  4.844917461510084E-002  5.268360769940139E-002  5.700194427820238E-002  6.140648163223111E-002
  6.589956692914023E-002  7.048359071549792E-002  7.516182645012098E-002  7.993784695443662E-002  8.481481287392884E-002  8.979624062335823E-002  9.488704149712485E-002  0.100090493284899       0.105411949825782       0.110857131584615       0.116420111864887       0.122113103948597       0.127941225226916       0.133903111112714       0.140006195848843       0.146255034960424     
  0.152654620009275       0.159209712611422       0.165925807605038       0.172807870514033       0.179862426613505       0.187093443524625       0.194509613684068       0.202120187046107       0.209928098623697       0.217943941192532       0.226096811974170       0.234130596668885       0.242046735647870       0.249853008101983       0.257556069513454       0.265152746080009     
  0.272635486273846       0.280012179945461       0.287290007572223       0.294474776453050       0.301565872628487       0.308549344995949       0.315434742972030       0.322232253775932       0.328950177303861       0.335575059218059       0.342107994999190       0.348563342471745       0.354950080578527       0.361250929301038       0.367477888423234       0.373647730376344     
  0.379746512699548       0.385781976825400       0.391763817788992       0.397679518418958       0.403546075019511       0.409347282552234       0.415109327903537       0.420804273955746       0.426391896489738       0.431749054748242       0.436682784161943       0.440568729364093       0.442527665352675       0.443311801346442       0.442758296677501       0.440845403196925     
  0.437865755213299       0.433926483504186       0.429017399574135       0.423640515497304       0.417932436737975       0.411914587362361       0.405693748995853       0.399252932500336       0.392652781333176       0.385915172034466       0.379025759873158       0.372021338780726       0.364929997194892       0.357730384516756       0.350433644543331       0.343059149350394     
  0.335625722187158       0.328127570900960       0.320557953163761       0.312927728626604       0.305247416364431       0.297527231752857       0.289765352537254       0.281953190309403       0.274096823533365       0.266202194010848       0.258274926828211       0.250320471349670       0.242331918233671       0.234307501638120       0.226251028743201       0.218166280697055     
  0.210056652515653       0.201925849422303       0.193772643568479       0.185592364368184       0.177387554282168       0.169160783974515       0.160914604585278       0.152651421912856       0.144370363877998       0.136069486751040       0.127750178909475       0.119413911163641       0.111061679239118       0.102691637026398       9.430556772031240E-002  8.590595738667706E-002
  7.749368894360603E-002  6.906776015750687E-002  6.062916675396168E-002  5.217823630477914E-002  4.371390149039822E-002  3.523509065453989E-002  2.674548517149444E-002  1.824528245286416E-002  9.732987821697514E-003  1.211247872775933E-003 -7.317956781600410E-003 -1.585961346037357E-002 -2.441115799573945E-002 -3.297259689570831E-002 -4.154407116521563E-002 -5.012583678209148E-002
 -5.871800654793824E-002 -6.732078437063749E-002 -7.593440019011222E-002 -8.455913167365026E-002 -9.319576844419819E-002 -0.101845195573567      -0.110508456491240      -0.119186798540451      -0.127881996201537      -0.136595667762591      -0.145329665788343      -0.154086166066887      -0.162867865015411      -0.171677636932808      -0.180518961351206      -0.189396096586811     
 -0.198313437624050      -0.207275900076447      -0.216288163103722      -0.225354122733069      -0.234478334483746      -0.243665256266584      -0.252918059601124      -0.262237678138634      -0.271623104226089      -0.281071669839198      -0.290581660867746      -0.300146666198492      -0.309766725977936      -0.319436241409832        10.3004800000000        9.70989700000000     
   8.75177100000000        7.46426000000000        5.89863100000000        4.11723600000000        2.19103800000000       0.196810700000000       -1.78589700000000       -3.67789800000000       -5.40348300000000       -6.89339200000000       -8.08753700000000       -8.93736500000000       -9.40778000000000       -9.47857100000000       -9.14527300000000       -8.41946000000000     
  -7.32845700000000       -5.91447300000000       -4.23320000000000       -2.35185600000000      -0.346770100000000        1.69947500000000        3.70124200000000        5.57335500000000        7.23478100000000        8.61234000000000        9.64426800000000        10.2834400000000        10.5000000000000      -0.214803951698832       1.091337235637013E-002  1.481084176250236E-002
 -0.252249660405643      -0.234681781065806      -0.281689037889249      -0.267791952902842       0.165725953723222      -0.270711973716551       8.229880038533954E-002 -0.306424299448310      -6.757497135003476E-002 -0.306276835002991       4.647692549697457E-002 -0.298871603883308       0.411911285355986      -0.288131399445984       0.102164146369409       0.124271113538188     
  0.113016927557598       8.673739070395081E-002  0.135893335899878       0.311800537003274       6.787757178854609E-002  4.249558128314940E-002  0.148245124905300      -1.979792841529471E-002  0.161328287741960      -7.869911056779377E-002  0.175064779920109      -0.179522406347634       0.189536648656323      -0.302828093932449       0.204933077484229       0.168078373512734     
  0.221738346018245       0.230309212487800       0.238511492932602       0.261833547363893       0.254221790234034       0.276642528171933       0.269294872387931       0.298040137207631       0.283884386883625       0.380411918762659       0.402048996835885       0.386115291919725       0.416640462492063       0.396953018676741       0.391600653758401       0.421078437686713     
  0.118612885621771       0.246453588961737       0.154699117902729       0.213127797925559       0.182264098451881       0.197082951606839       0.130017870126754       0.141951366972721      -0.243735379367489       0.107534580285533      -0.308443967675200      -0.293992169697826      -0.260257509311845      -0.274910213823824      -0.203888752654225      -0.225051031870876     
  0.425018969974189       2.924869330309160E-002 -3.314515157801678E-003 -0.165266208017399      -0.103024867800241      -0.131852726592427      -3.751417103189869E-002 -5.703488074838625E-002  3.520135743717195E-002  2.140300402081508E-002  5.909237744977230E-002  5.058307020668179E-002  0.331728953755953       7.710743761675676E-002  1.653384550101933E-002  8.185045340159125E-002
  0.374647707623746       0.350690004265569       0.338121339164653       0.325215834680211       0.407091471347328       0.362823537703731       0.344440838161718       0.356794438325159       3.869285133460676E-002  0.318556645957362      -0.148815232398534       3.222223193577500E-002  9.690569284772499E-002  0.304945453797222      -1.145442408949138E-002  6.346128967425718E-002
  2.563762165850941E-002 -4.702867429770108E-002  4.303473907670163E-003 -9.047466753990929E-002  0.428469292551146       0.115702577368794       0.414933774583157       0.337562395707954       0.107326713816761       0.182126069177277      -0.278709810150044      -0.139194361537607       0.433539511904173       9.059474577039067E-002 -0.297543336430325      -0.244793690962148     
 -0.156542945943159      -0.293238190132116      -0.253591972853341       0.132412073278334       0.149098661344569      -5.345216179280265E-002 -3.642486746419782E-002 -8.757118193988433E-002 -7.051591895996578E-002 -0.121983431679975      -0.104821218943254      -0.191650475211735      -0.174035527551900      -0.227162388856146      -0.209366758397039      -0.200495280124613     
 -0.236029041265735      -0.262357659223907      -0.182831713372114      -0.218261532853602      -9.618225697264382E-002 -0.165265769481360      -0.130542708481843      -0.147895638397304      -7.905567569994254E-002 -0.113387325680074       6.292145182267062E-003 -6.201811955948411E-002 -1.078207542267295E-002 -4.489731758083437E-002 -1.933655944820434E-002 -2.789379912647350E-002
  2.332297187884302E-002 -2.233577693491862E-003  0.344784011239890       3.182190685876007E-002  6.552986502684305E-002  4.877941302083544E-002  4.030812251371818E-002  7.391900206776270E-002  5.719757399422182E-002  0.359000717076164       0.351931835034665       0.392240486553861       0.365958637682385       0.433155607248479       0.409668713696037       0.379417761836727     
  0.372749687875383       0.398318950060508       0.385942834827183       0.431941947336159       0.404167745851135       0.330271708292560       0.429153738674120       0.433891984857866      -0.116626588516973       0.431427796873715       7.242752045275658E-002  0.419981756860164       0.424946851052525       0.285099321757721       0.307997137699602       0.315496564930350     
  0.322918607044551       0.292802540316559       0.300433833254397       0.246008405078776       0.277351481375746       0.261748275068772       0.269565869632419       0.238076624952821       0.253901824817359       0.230118678204450       0.214158066195071       0.198225396749967       0.173937297257090       0.140756947276668       0.124062869467803       0.157431991538981     
  0.190240032442340       0.206184162160063      -0.192208383189842       0.222142046789102       0.368805214530111      -0.286331670834840       9.894721417004754E-002 -2.845270353461771E-002  5.479319053591619E-002  0.291022440577778       9.175957506159993E-002 -0.186544629968353      -7.706426454496884E-002  0.410074498780253       9.914479931908232E-002  0.280204624511923     
 -0.220487920980897       0.234555589826025       0.301023693399965       0.416135169666571       0.402626121102617      -0.255777988810313       0.374518506667125       2.338755188048947E-002  0.225871995733856       0.406449641302344       0.294265327912006       0.307818157406539       6.374537549971637E-003 -0.282314618327274       0.121072099304944       0.413230664594654     
  0.187196450352548      -0.266967669933444       0.422966912858851      -0.260884593539966      -0.290218482311289       0.194879506072299      -0.132420235885981      -3.127805691234276E-002 -0.236759578221521      -0.253179823902372      -0.228222178373464       3.708127677695405E-002  0.170802195591803       8.699105161591991E-002 -2.268549206128267E-002  0.178769940709819     
  0.257282295107215      -0.124415156775003       0.418500951384599       0.409911856453551       0.423296083510942       0.331807464859384       0.405618359639461       2.005924172126539E-002  0.233842979830576       0.241697276567005       0.398599882544245      -0.293454728866873      -8.926192036293745E-002 -0.230264451567080       6.569542306533843E-002 -0.263138316218691     
 -0.244348087797775      -1.797502209998236E-002  0.109886989797311       0.115388968768187       0.104382857893433       8.379916930069137E-002  7.911489203074634E-002  3.763888975198804E-002 -6.571868415243143E-002 -0.102549645620402      -0.172779426137527      -0.296726810056133      -0.298466030967178       0.170060490081818       0.163678709203568       0.258242045635130     
  0.273007958786744       0.265704379245029       0.287298617178970       0.394404701085982       0.379951317998861       0.389940368500112       0.385115219591197       0.250573248204840       0.242696229067512       0.156827996750427       0.150310201537980       0.216733991747867       0.208027632521178       0.184872651651855       0.177799371744764       0.200059861860112     
  0.191951666187108       0.132184002425605       0.126387191183327       0.143962010397754       0.137649571552464      -0.239376134762170      -0.247868022067007       1.329696882451192E-002 -0.300481503109697      -0.288109967772314      -0.293277614281651      -0.269969186227719      -0.276391476231249      -0.198735420540366      -0.209997795924047      -0.117615578764163     
 -2.655157743141723E-002 -3.555567905575951E-002 -4.504618719294440E-002 -5.507244712054382E-002  3.038916229946742E-002  4.486137425106868E-002  6.136625396473999E-002  5.711678046420149E-002  5.288789093834029E-002  4.883200055906617E-002  0.363461590650308       7.462726434473904E-002  1.883735777308870E-002  0.369096252582015       0.346017410062932       0.339920937442545     
  0.333818355535094       0.327580168834352       0.357709321494275       0.351958316217091       0.321137773825098       0.314529594797003      -0.135856346936012      -0.155715809380409       3.291067962325012E-002  3.481127991977961E-002 -1.652400918359165E-003 -9.759194583321307E-003  4.112047503879973E-002  2.721353665040188E-002  0.112044475683785       0.120447359336389     
  0.421420749293047      -0.219659399352535      -0.115862712155956       0.418944732113451      -0.184695420026949      -0.281813087313028       0.128821293117267       0.137201820479209       0.145609214881040      -8.189440161741646E-002 -4.773845328297865E-002 -3.970860550921451E-002 -1.411230314050482E-002 -7.339079141986515E-002 -0.107343749203837      -0.175887725707837     
 -0.210835270115052      -0.202177729992944      -0.193355093892605      -9.914784086277362E-002 -8.994514653800545E-002 -0.167222733670635      -0.158424298724500      -0.149890731022251      -0.141617846245648       1.153665200292620E-002 -6.491547413269716E-002 -5.684719084990941E-002 -5.531927074843845E-003  3.012472411415890E-003  0.338886440537595       0.345813162896550     
  2.857168483368611E-002  4.557486038338054E-002  7.022660184868845E-002  7.913325307379998E-002  5.406408541783836E-002  6.236111716449039E-002  0.352708385712127       0.359519674934373       0.366131216419072       0.390576206257158       0.422603924236409       0.372541692372236       0.378819668156923       0.384853141373784       0.396025731425435       0.401058600520813     
  0.287983521742786       0.421129782638246       6.975972374042400E-002  0.414264693510235       0.310353644747333       0.317612494408910       0.324731166418637       0.295539088931682       0.302990860792671       0.249519395823459       0.280353684342658       0.264996965609116       0.272689222362119       0.154020825328310       0.162497437372072       0.202513073016023     
  0.210271942709568       0.218110128602051       0.225976175208124      -0.277620031821215      -0.272930039219319       9.523282467968608E-002  0.103647580737507       9.384908669712339E-002  8.883309134482503E-002 -0.163524266213839       6.631825435153121E-002  0.362887598163035       0.398438201355090       0.260418623932083       0.332813052279733      -0.281976460450678     
  0.199036923784500       0.162892089082623       9.850728074048359E-002 -6.393157054822141E-002  0.276134738622421       0.220661523020791      -8.104205877262904E-003 -0.190998132559050      -0.287663149917206       0.121249434112902       3.549041157845650E-002  4.190135521717780E-002  0.392804042801886       0.368045004325603      -0.279445360817907       0.410480777235216     
  4.697355214971621E-002 -0.252700455625613       8.666600137537883E-002  0.399038427452113       0.290555071336373       0.405393601382627       0.283034196025176      -2.171193433813590E-002 -0.179350993443711       0.400946861377605      -0.224015197467349       0.395796386623621      -0.257020621023886       2.505129790784966E-002  0.230138385299489       0.296689350431376     
  0.357413108387524       0.303298319194082       7.423681460124065E-003  0.403147920548776       0.410459952955047       0.192435478364722      -0.122593912631644      -0.232003670367040       0.173175107808210       0.186102799208984       0.406018361874441       0.411136580709206      -4.387681566140555E-003  0.237379451502199      -7.614121315867883E-002 -0.241984703742057     
  0.147925578681548       0.109323348821468       7.803155949870882E-002  3.288925962984984E-002 -8.836710695746697E-002 -0.102978682051440       0.268929000605442       0.261742798711237       0.290109178930687       0.283096688971474       0.389830501574614       0.386324653640588       0.373097814278571       0.382649062279405       0.378105974811616       0.254163050507524     
  0.246515689456083       0.238472169498968      -1.654610678922230E-002  0.211112277370328       0.203184146712658       0.183486111877477       0.172429602807876       0.196821051338110       0.137520994684640      -0.233085199689988      -0.241894183333310      -0.249606756565879      -0.289211926253310      -0.290467235456842      -0.283765547055238      -0.263507267628208     
 -0.269630420093928      -0.274970325137628      -0.202977276929269      -0.213635101081586      -2.457448248261274E-002 -3.398518330662514E-002 -4.299680650572058E-002 -5.360113833597946E-002  5.754614050593648E-002  4.941886466784223E-002  2.030450904492853E-002  0.340553917739636       0.334981999534763       0.329138607753479       0.351982673628474       0.346729786605008     
  0.322909427659650       0.316572120003069       0.309980486780773      -0.119018491330255      -0.142442545386317       0.134019052842836      -7.766015828134520E-004  0.130337790296996       3.138691178394543E-002  2.823051329989501E-002  0.121040103811679       0.409078980980542      -0.215007072569309      -0.104109615067558       0.137919470244432      -8.077443575306964E-002
 -3.947915806030622E-002 -0.180814099249821      -0.197938622773894      -9.233758874189324E-002 -0.163491318073331      -0.145595501808233      -0.133964199643554       1.273404720825944E-002 -6.236338826721877E-002 -5.085610792404105E-002  0.339374157024358       2.981021129356243E-002  7.557421684690724E-002  6.447814335313362E-002  0.345890003408207       0.352674375666968     
  0.359016817303296       0.365321535345748       0.407609803429402       0.371171385942994       0.377087346005905       0.382350915346713       0.387601908660022       0.392077877614698       0.396280629426080       0.409196526514231       7.192205754360975E-002  1.560263360980829E-002  0.402383102031815       0.312268717789880       0.319242365931055       0.325477637630268     
  0.297876431705790       0.305172632843251       0.245139167381169       0.252783668758943       0.267945604837448       0.275542509752452       0.155039025578868       0.206426388077763       0.214157743326209       0.221873859833524       0.229652929246543      -0.264826356799050      -0.262601357571313      -0.260986153747705       0.104054814478641       8.810458950135130E-002
 -0.273583264616971       0.382749088946555      -0.166214974898792      -9.234421225966738E-003 -0.272465723465341      -0.236469317879323      -0.274251217683786       0.386296481863143       0.376746238191599       0.392746516229623      -0.269596678877314       0.197652041695869      -1.166858899237921E-002 -0.198839572417499       0.391827503103418       0.390430094638906     
 -0.185963186317684       0.389366645838397       0.358014679297407      -6.697860552739765E-002  0.185608691076222       0.102576804483169       0.200236460256642      -0.229648355164972       0.219280105646599       6.827425388578834E-003  0.391069363641292       0.334257282847491       0.395701355353954      -0.266682440210277      -4.391271810987996E-002 -5.415627949237789E-002
  0.147197828460402       0.288753893330689       0.259264025583284      -0.150443016617242       0.387909068609835       3.220200739913842E-002  0.268285429480212       0.141555183534602      -0.277721851997485       3.596818611066066E-002  0.384585184017292       0.396140310359968       0.387297321255026       0.395001394106932       0.393886278479664       2.531069928945129E-002
  0.347404277723412      -0.215298416495022      -9.471269623102685E-002  8.155690743822075E-002  0.188191217882731       0.396655846713403      -0.228036286094286       0.295273703540969       0.282160315819731       0.381489395323684       0.367538239701892       0.253753433983838       0.238143404807323      -9.566711220365609E-002  0.113870123232655      -0.245488948998965     
 -0.278821808087823      -0.276927175447707      -0.258324140330919      -0.268679266609506      -0.210229193891461       0.153224370243320      -2.584419134119298E-002  0.165751610228024       0.175179952606541      -4.480352312017055E-002  4.065140744053408E-002  6.258049542403737E-002  5.428221383403692E-002  0.333163078218106       0.340421519252939       0.321003331841973     
  0.308268401316155      -0.127016817814552       0.132834649207375       0.123760331626845       4.688037865636768E-002  0.394557341001519      -0.182593423189582       0.130115688377542      -2.965491872972292E-002 -0.109681842521830      -8.399233404432216E-002 -0.166049685890510      -0.148687465915252      -0.134866876388371      -0.124637039447168      -6.890420902620098E-002
  5.647292429516559E-003  2.277399802232560E-002  3.997288699029589E-002  5.772518694510453E-002  7.167677898892622E-002  0.347662659355076       0.359632660077548       0.370324954376150       0.379628561677139       6.934464578167499E-002  7.421616818896787E-002  1.836774581191569E-002  0.317445717373104       0.325548495973081       0.303141611807006       0.244307534565004     
  0.274056850142822       0.165118658123375       0.181294569432182       0.213885906787989       0.229134411106614      -0.247938652076444      -0.250006124705279      -0.245495058250760       9.543993597805656E-002  0.113068820112961       9.198882073969050E-002  8.163757377200753E-002  0.155936406960151      -0.211202663363431       0.246055498868503       1.176295632374080E-002
  0.376654928811256       0.379488057583855      -0.220376007281197       4.204677629001086E-002 -0.197039623705798       7.787618952256015E-002  0.235127715230256       0.373242609928667      -0.215316536486711      -0.131298287245984       7.214662101217856E-002 -0.268924441658778       0.228337230294580      -0.265036008020462      -0.155949656752002       4.678551929907282E-002
  0.373871590993908       0.373425467345246      -0.263448492369495       0.377460052297512      -0.232110841782162       0.363117359379472       0.375997171301276      -3.727175168208441E-002 -1.022635179175002E-003  0.323195989851912      -0.182209648570266      -0.253874876353403       0.372600879352974      -0.252877417147614       0.374610603722777       0.375556137526077     
  0.370683296904357       0.312139186671069       5.212832947853252E-002  0.378605687659817      -0.247432747443044      -4.665271168028196E-002  8.900100112363174E-002  0.374631658693350       6.670766004674544E-002  0.134395465040012       0.127810945128874      -0.267699440747986       0.379476966721782       0.378756170016029       0.377962859342087       0.377578079548015     
  0.332780346701981       0.287198658203546       0.274350288114996       0.363537631415549       0.354834891841489       0.260783628596836       0.188631873985985       0.204493753706437       0.299221452872356      -0.231726331846487      -0.259432058335652      -0.244096444807524      -0.253372027177557      -0.170923202148872      -0.193175398029466       3.073118542467823E-002
  0.145355478962650      -2.142104670063927E-003  0.157996727362678       0.168393310866739      -1.816444640221948E-002  0.176078887433861       3.852033033319346E-002  5.955379432221680E-002  0.345892610894269       0.338407148762332       0.324198690694115      -6.164389411201565E-002 -9.433144610834487E-002  2.266964192176235E-002  0.116623623219608      -0.167067868644105     
  0.139190856619904      -3.516777962287432E-002 -1.829188634048451E-002 -9.784409681855799E-002 -8.576871663582664E-002 -0.151243455804334      -0.135804688984747      -0.125139393601798      -0.112789711359650      -7.293264038384395E-002 -5.800438517360429E-002  1.605665610575713E-002  3.306167744287136E-002  5.013713393843744E-002  0.332802669550389       0.344650999308750     
  0.354605654463670       0.370210660273494       6.698466634414652E-002  9.658572575833940E-002  0.106824985063303       0.316752277229675       0.292255547741341       0.306375716401614       0.249672789974106       0.263921876138073       0.278169408703595       0.187913677881293       0.170333399264621       0.206379968268361       0.220565235003717      -0.224077729199538     
  0.105497508100484       0.122466945585674       8.623968550619299E-002  7.727608866232533E-002 -0.243633309658018       0.359083866096855      -0.248302474108065      -0.178835736431589      -0.152076710797341       0.132368767514286      -0.244705072271576      -0.247492839260823       0.237041364534596       0.240108112717764      -0.228468009601920       0.119078262850535     
  5.096255645157377E-002  0.213169142412020       0.354671520775553      -0.226629001605091      -0.214119735522229       0.301295964389931       7.279364527849036E-002  0.109424404796467      -0.165463123441193       0.357560535890275       0.355814234718538      -0.202129219208769       0.161754507164049       0.313397495135838       0.191818598731121       0.359446378879549     
  0.359115369465555      -0.187329380030263       9.354939944234086E-003  0.226080180959454      -2.876479221813877E-002 -0.139795054289612       0.358843221212741       0.352184573427204       0.356956497394332       0.180790051870754      -0.250999351412890      -0.252444971686050       0.359661322248811      -0.232782073603625       0.360447302239511       0.358395831738001     
  7.933078679225625E-002  0.102559894355760       0.358557345267149       0.358502591075952       0.164771945406987       0.359670303932172       0.359630915316150       0.359504074930352       0.359671028114107       0.278299138330040       0.289268788032542       0.348400011994860       0.265753677909640       0.252469889483812      -0.239865164634468      -0.235130353972066     
 -0.156150782764584      -0.196259972909935      -0.174425451474396       6.314884323652858E-002  1.770335591035455E-002  5.328041691598728E-003  0.148651011849677      -1.007933638685210E-002  3.959743844395242E-002  5.861560454719644E-002  0.341373247393423       0.334291177241035       0.329078267650410       0.323262560192806       0.313375378598042      -9.367011395354685E-002
 -5.452445546563933E-002  2.769929095041224E-002  0.101537287790801       0.148058358673319      -4.346127641984365E-002 -1.981017440195765E-002 -6.303577862307175E-003 -9.050647201920292E-002 -0.139956741834143      -0.119836349782994      -7.132660596185803E-002 -6.369900732970979E-002  2.736260231311904E-002  4.280142080021121E-002  5.611728698529550E-002  0.319515824932234     
  0.329706508032380       0.338898091770397       0.346254521137607       0.294036568752672       0.306377461680304       0.253869259960493       0.267428124164406       0.280874403135292       0.178650743532818       0.196302199688513       0.212367331035834      -0.207251212948737       0.115926973777415       0.131436102063395       9.198540724151238E-002  8.344927223337845E-002
  3.560381073473334E-002  0.168966994795222      -0.227968940702769       0.339511655833882       3.377363950792200E-002  0.340553766359024       0.339434246038424      -0.225024778537651      -0.138862578549214       0.181323793448206       0.334700477076618      -0.163831281054204      -4.819718078284374E-002  0.334572346392137      -0.216290411583124      -0.213377452620680     
 -0.229723467012106       0.337622786435768       0.339107425304927      -1.780715613435335E-002  0.243738971581509      -0.226081451599581      -0.192106610941072      -9.656510073527058E-002  4.336314357768634E-002  0.288388601147429       0.300430334457708      -6.206853824647651E-002 -0.206641572188655       0.304482425777327       7.876998614793618E-002 -0.116615462293975     
  9.002359839862306E-002  0.115695866960832      -0.224927045006236       0.222314408088934       0.197098145197214      -0.220791134976732       0.334576376693850       0.339736108223837       0.230535046378449       6.888446111529578E-002  0.335943621326924       0.335448962763099      -0.249853017588331       0.342132015639237      -0.231188517402592       0.342351524884858     
  0.343281171305014       2.149087724729770E-002  0.117891820809150       0.335913871234492       0.336691652338506       0.336766502768147       0.337776795182545       0.278615399831604       0.268212372515183       0.255712213664606       0.243607193352163      -0.205162889042187      -0.146354894988435      -0.178079666419140      -8.388103200160923E-004  0.124370339066628     