 variables= "x","y","f"
 zone i=          12  datapacking=point
   150.410587422623        40.3893561419159        18.5185588084185     
   150.742812050031        39.2836771930008        18.9978203358233     
   149.692124979656        39.7625827951176        18.9007475958014     
   149.544533145167        40.3540375524746        18.6421066134651     
   149.468570856125        39.4341445336712        19.0866722731933     
   149.895378977185        39.5421774639573        18.9803272949441     
   150.509469568850        40.1266367676442        18.6275585260745     
   149.780043665740        40.6341537971786        18.4844847632758     
   150.193890111084        40.5978691885652        18.4500274499721     
   150.336097044324        39.6374523019819        18.8791970289437     
   150.033024025280        39.9108394204670        18.7877510748106     
   149.284792905106        40.1031398214244        18.7913757183230     
