 variables= "x","f"
 zone i=        1001  datapacking=point
  -2.00000000000000       0.243733886786415     
  -1.99600000000000       0.241584909230964     
  -1.99200000000000       0.239479310725676     
  -1.98800000000000       0.237416858890477     
  -1.98400000000000       0.235397321805808     
  -1.98000000000000       0.233420468012620     
  -1.97600000000000       0.231486066512382     
  -1.97200000000000       0.229593886767072     
  -1.96800000000000       0.227743698699185     
  -1.96400000000000       0.225935272691728     
  -1.96000000000000       0.224168379588221     
  -1.95600000000000       0.222442790692700     
  -1.95200000000000       0.220758277769712     
  -1.94800000000000       0.219114613044317     
  -1.94400000000000       0.217511569202091     
  -1.94000000000000       0.215948919389122     
  -1.93600000000000       0.214426437212013     
  -1.93200000000000       0.212943896737878     
  -1.92800000000000       0.211501072494345     
  -1.92400000000000       0.210097739469558     
  -1.92000000000000       0.208733673112173     
  -1.91600000000000       0.207408649331357     
  -1.91200000000000       0.206122444496796     
  -1.90800000000000       0.204874835438684     
  -1.90400000000000       0.203665599447732     
  -1.90000000000000       0.202494514275163     
  -1.89600000000000       0.201361358132714     
  -1.89200000000000       0.200265909692635     
  -1.88800000000000       0.199207948087692     
  -1.88400000000000       0.198187252911159     
  -1.88000000000000       0.197203604216830     
  -1.87600000000000       0.196256782519008     
  -1.87200000000000       0.195346568792511     
  -1.86800000000000       0.194472744472671     
  -1.86400000000000       0.193635091455333     
  -1.86000000000000       0.192833392096854     
  -1.85600000000000       0.192067429214108     
  -1.85200000000000       0.191336986084480     
  -1.84800000000000       0.190641846445868     
  -1.84400000000000       0.189981794496686     
  -1.84000000000000       0.189356614895859     
  -1.83600000000000       0.188766092762827     
  -1.83200000000000       0.188210013677543     
  -1.82800000000000       0.187688163680474     
  -1.82400000000000       0.187200329272599     
  -1.82000000000000       0.186746297415412     
  -1.81600000000000       0.186325855530921     
  -1.81200000000000       0.185938791501646     
  -1.80800000000000       0.185584893670621     
  -1.80400000000000       0.185263950841393     
  -1.80000000000000       0.184975752278025     
  -1.79600000000000       0.184720087705090     
  -1.79200000000000       0.184496747307677     
  -1.78800000000000       0.184305521731388     
  -1.78400000000000       0.184146202082337     
  -1.78000000000000       0.184018579927153     
  -1.77600000000000       0.183922447292979     
  -1.77200000000000       0.183857596667471     
  -1.76800000000000       0.183823820998796     
  -1.76400000000000       0.183820913695640     
  -1.76000000000000       0.183848668627196     
  -1.75600000000000       0.183906880123176     
  -1.75200000000000       0.183995342973802     
  -1.74800000000000       0.184113852429812     
  -1.74400000000000       0.184262204202456     
  -1.74000000000000       0.184440194463497     
  -1.73600000000000       0.184647619845213     
  -1.73200000000000       0.184884277440394     
  -1.72800000000000       0.185149964802345     
  -1.72400000000000       0.185444479944885     
  -1.72000000000000       0.185767621342343     
  -1.71600000000000       0.186119187929566     
  -1.71200000000000       0.186498979101910     
  -1.70800000000000       0.186906794715249     
  -1.70400000000000       0.187342435085968     
  -1.70000000000000       0.187805700990965     
  -1.69600000000000       0.188296393667654     
  -1.69200000000000       0.188814314813959     
  -1.68800000000000       0.189359266588320     
  -1.68400000000000       0.189931051609691     
  -1.68000000000000       0.190529472957538     
  -1.67600000000000       0.191154334171841     
  -1.67200000000000       0.191805439253093     
  -1.66800000000000       0.192482592662301     
  -1.66400000000000       0.193185599320986     
  -1.66000000000000       0.193914264611181     
  -1.65600000000000       0.194668394375435     
  -1.65200000000000       0.195447794916808     
  -1.64800000000000       0.196252272998875     
  -1.64400000000000       0.197081635845724     
  -1.64000000000000       0.197935691141956     
  -1.63600000000000       0.198814247032687     
  -1.63200000000000       0.199717112123545     
  -1.62800000000000       0.200644095480673     
  -1.62400000000000       0.201595006630725     
  -1.62000000000000       0.202569655560871     
  -1.61600000000000       0.203567852718793     
  -1.61200000000000       0.204589409012689     
  -1.60800000000000       0.205634135811266     
  -1.60400000000000       0.206701844943749     
  -1.60000000000000       0.207792348699874     
  -1.59600000000000       0.208905459829892     
  -1.59200000000000       0.210040991544566     
  -1.58800000000000       0.211198757515172     
  -1.58400000000000       0.212378571873503     
  -1.58000000000000       0.213580249211862     
  -1.57600000000000       0.214803604583067     
  -1.57200000000000       0.216048453500448     
  -1.56800000000000       0.217314611937852     
  -1.56400000000000       0.218601896329636     
  -1.56000000000000       0.219910123570671     
  -1.55600000000000       0.221239111016344     
  -1.55200000000000       0.222588676482552     
  -1.54800000000000       0.223958638245710     
  -1.54400000000000       0.225348815042741     
  -1.54000000000000       0.226759026071085     
  -1.53600000000000       0.228189090988695     
  -1.53200000000000       0.229638829914038     
  -1.52800000000000       0.231108063426093     
  -1.52400000000000       0.232596612564354     
  -1.52000000000000       0.234104298828828     
  -1.51600000000000       0.235630944180035     
  -1.51200000000000       0.237176371039008     
  -1.50800000000000       0.238740402287296     
  -1.50400000000000       0.240322861266959     
  -1.50000000000000       0.241923571780571     
  -1.49600000000000       0.243542358091221     
  -1.49200000000000       0.245179044922510     
  -1.48800000000000       0.246833457458553     
  -1.48400000000000       0.248505421343978     
  -1.48000000000000       0.250194762683928     
  -1.47600000000000       0.251901308044057     
  -1.47200000000000       0.253624884450536     
  -1.46800000000000       0.255365319390045     
  -1.46400000000000       0.257122440809782     
  -1.46000000000000       0.258896077117456     
  -1.45600000000000       0.260686057181289     
  -1.45200000000000       0.262492210330020     
  -1.44800000000000       0.264314366352896     
  -1.44400000000000       0.266152355499683     
  -1.44000000000000       0.268006008480656     
  -1.43600000000000       0.269875156466608     
  -1.43200000000000       0.271759631088841     
  -1.42800000000000       0.273659264439174     
  -1.42400000000000       0.275573889069937     
  -1.42000000000000       0.277503337993975     
  -1.41600000000000       0.279447444684647     
  -1.41200000000000       0.281406043075823     
  -1.40800000000000       0.283378967561890     
  -1.40400000000000       0.285366052997745     
  -1.40000000000000       0.287367134698801     
  -1.39600000000000       0.289382048440984     
  -1.39200000000000       0.291410630460732     
  -1.38800000000000       0.293452717455000     
  -1.38400000000000       0.295508146581251     
  -1.38000000000000       0.297576755457468     
  -1.37600000000000       0.299658382162141     
  -1.37200000000000       0.301752865234280     
  -1.36800000000000       0.303860043673403     
  -1.36400000000000       0.305979756939544     
  -1.36000000000000       0.308111844953252     
  -1.35600000000000       0.310256148095585     
  -1.35200000000000       0.312412507208120     
  -1.34800000000000       0.314580763592943     
  -1.34400000000000       0.316760759012656     
  -1.34000000000000       0.318952335690374     
  -1.33600000000000       0.321155336309725     
  -1.33200000000000       0.323369604014851     
  -1.32800000000000       0.325594982410407     
  -1.32400000000000       0.327831315561562     
  -1.32000000000000       0.330078447994000     
  -1.31600000000000       0.332336224693914     
  -1.31200000000000       0.334604491108015     
  -1.30800000000000       0.336883093143526     
  -1.30400000000000       0.339171877168184     
  -1.30000000000000       0.341470690010237     
  -1.29600000000000       0.343779378958450     
  -1.29200000000000       0.346097791762099     
  -1.28800000000000       0.348425776630976     
  -1.28400000000000       0.350763182235383     
  -1.28000000000000       0.353109857706139     
  -1.27600000000000       0.355465652634574     
  -1.27200000000000       0.357830417072533     
  -1.26800000000000       0.360204001532374     
  -1.26400000000000       0.362586256986969     
  -1.26000000000000       0.364977034869702     
  -1.25600000000000       0.367376187074472     
  -1.25200000000000       0.369783565955691     
  -1.24800000000000       0.372199024328285     
  -1.24400000000000       0.374622415467692     
  -1.24000000000000       0.377053593109866     
  -1.23600000000000       0.379492411451272     
  -1.23200000000000       0.381938725148891     
  -1.22800000000000       0.384392389320214     
  -1.22400000000000       0.386853259543249     
  -1.22000000000000       0.389321191856516     
  -1.21600000000000       0.391796042759048     
  -1.21200000000000       0.394277669210393     
  -1.20800000000000       0.396765928630612     
  -1.20400000000000       0.399260678900278     
  -1.20000000000000       0.401761778360479     
  -1.19600000000000       0.404269085812817     
  -1.19200000000000       0.406782460519405     
  -1.18800000000000       0.409301762202874     
  -1.18400000000000       0.411826851046363     
  -1.18000000000000       0.414357587693528     
  -1.17600000000000       0.416893833248538     
  -1.17200000000000       0.419435449276076     
  -1.16800000000000       0.421982297801337     
  -1.16400000000000       0.424534241310030     
  -1.16000000000000       0.427091142748378     
  -1.15600000000000       0.429652865523118     
  -1.15200000000000       0.432219273501499     
  -1.14800000000000       0.434790231011284     
  -1.14400000000000       0.437365602840751     
  -1.14000000000000       0.439945254238690     
  -1.13600000000000       0.442529050914404     
  -1.13200000000000       0.445116859037711     
  -1.12800000000000       0.447708545238942     
  -1.12400000000000       0.450303976608941     
  -1.12000000000000       0.452903020699066     
  -1.11600000000000       0.455505545521189     
  -1.11200000000000       0.458111419547694     
  -1.10800000000000       0.460720511711480     
  -1.10400000000000       0.463332691405958     
  -1.10000000000000       0.465947828485055     
  -1.09600000000000       0.468565793263209     
  -1.09200000000000       0.471186456515372     
  -1.08800000000000       0.473809689477011     
  -1.08400000000000       0.476435363844106     
  -1.08000000000000       0.479063351773148     
  -1.07600000000000       0.481693525881144     
  -1.07200000000000       0.484325759245616     
  -1.06800000000000       0.486959925404595     
  -1.06400000000000       0.489595898356629     
  -1.06000000000000       0.492233552560779     
  -1.05600000000000       0.494872762936619     
  -1.05200000000000       0.497513404864236     
  -1.04800000000000       0.500155354184232     
  -1.04400000000000       0.502798487197720     
  -1.04000000000000       0.505442680666329     
  -1.03600000000000       0.508087811812201     
  -1.03200000000000       0.510733758317991     
  -1.02800000000000       0.513380398326867     
  -1.02400000000000       0.516027610442512     
  -1.02000000000000       0.518675273729120     
  -1.01600000000000       0.521323267711402     
  -1.01200000000000       0.523971472374581     
  -1.00800000000000       0.526619768164391     
  -1.00400000000000       0.529268035987083     
  -1.00000000000000       0.531916157209420     
 -0.996000000000000       0.534564013658679     
 -0.992000000000000       0.537211487622649     
 -0.988000000000000       0.539858461849636     
 -0.984000000000000       0.542504819548455     
 -0.980000000000000       0.545150444388438     
 -0.976000000000000       0.547795220499429     
 -0.972000000000000       0.550439032471786     
 -0.968000000000000       0.553081765356380     
 -0.964000000000000       0.555723304664595     
 -0.960000000000000       0.558363536368331     
 -0.956000000000000       0.561002346899998     
 -0.952000000000000       0.563639623152523     
 -0.948000000000000       0.566275252479343     
 -0.944000000000000       0.568909122694412     
 -0.940000000000000       0.571541122072195     
 -0.936000000000000       0.574171139347672     
 -0.932000000000000       0.576799063716335     
 -0.928000000000000       0.579424784834191     
 -0.924000000000000       0.582048192817760     
 -0.920000000000000       0.584669178244075     
 -0.916000000000000       0.587287632150682     
 -0.912000000000000       0.589903446035644     
 -0.908000000000000       0.592516511857533     
 -0.904000000000000       0.595126722035436     
 -0.900000000000000       0.597733969448955     
 -0.896000000000000       0.600338147438205     
 -0.892000000000000       0.602939149803812     
 -0.888000000000000       0.605536870806920     
 -0.884000000000000       0.608131205169182     
 -0.880000000000000       0.610722048072768     
 -0.876000000000000       0.613309295160358     
 -0.872000000000000       0.615892842535149     
 -0.868000000000000       0.618472586760850     
 -0.864000000000000       0.621048424861683     
 -0.860000000000000       0.623620254322385     
 -0.856000000000000       0.626187973088204     
 -0.852000000000000       0.628751479564905     
 -0.848000000000000       0.631310672618763     
 -0.844000000000000       0.633865451576569     
 -0.840000000000000       0.636415716225626     
 -0.836000000000000       0.638961366813752     
 -0.832000000000000       0.641502304049276     
 -0.828000000000000       0.644038429101044     
 -0.824000000000000       0.646569643598412     
 -0.820000000000000       0.649095849631253     
 -0.816000000000000       0.651616949749950     
 -0.812000000000000       0.654132846965402     
 -0.808000000000000       0.656643444749020     
 -0.804000000000000       0.659148647032730     
 -0.800000000000000       0.661648358208971     
 -0.796000000000000       0.664142483130694     
 -0.792000000000000       0.666630927111365     
 -0.788000000000000       0.669113595924964     
 -0.784000000000000       0.671590395805984     
 -0.780000000000000       0.674061233449430     
 -0.776000000000000       0.676526016010822     
 -0.772000000000000       0.678984651106194     
 -0.768000000000000       0.681437046812092     
 -0.764000000000000       0.683883111665577     
 -0.760000000000000       0.686322754664223     
 -0.756000000000000       0.688755885266117     
 -0.752000000000000       0.691182413389859     
 -0.748000000000000       0.693602249414564     
 -0.744000000000000       0.696015304179860     
 -0.740000000000000       0.698421488985888     
 -0.736000000000000       0.700820715593304     
 -0.732000000000000       0.703212896223275     
 -0.728000000000000       0.705597943557483     
 -0.724000000000000       0.707975770738124     
 -0.720000000000000       0.710346291367907     
 -0.716000000000000       0.712709419510054     
 -0.712000000000000       0.715065069688300     
 -0.708000000000000       0.717413156886897     
 -0.704000000000000       0.719753596550606     
 -0.700000000000000       0.722086304584703     
 -0.696000000000000       0.724411197354980     
 -0.692000000000000       0.726728191687739     
 -0.688000000000000       0.729037204869797     
 -0.684000000000000       0.731338154648486     
 -0.680000000000000       0.733630959231648     
 -0.676000000000000       0.735915537287641     
 -0.672000000000000       0.738191807945337     
 -0.668000000000000       0.740459690794120     
 -0.664000000000000       0.742719105883888     
 -0.660000000000000       0.744969973725052     
 -0.656000000000000       0.747212215288539     
 -0.652000000000000       0.749445752005785     
 -0.648000000000000       0.751670505768744     
 -0.644000000000000       0.753886398929881     
 -0.640000000000000       0.756093354302175     
 -0.636000000000000       0.758291295159118     
 -0.632000000000000       0.760480145234717     
 -0.628000000000000       0.762659828723492     
 -0.624000000000000       0.764830270280475     
 -0.620000000000000       0.766991395021214     
 -0.616000000000000       0.769143128521769     
 -0.612000000000000       0.771285396818712     
 -0.608000000000000       0.773418126409132     
 -0.604000000000000       0.775541244250629     
 -0.600000000000000       0.777654677761317     
 -0.596000000000000       0.779758354819824     
 -0.592000000000000       0.781852203765292     
 -0.588000000000000       0.783936153397374     
 -0.584000000000000       0.786010132976240     
 -0.580000000000000       0.788074072222571     
 -0.576000000000000       0.790127901317562     
 -0.572000000000000       0.792171550902922     
 -0.568000000000000       0.794204952080874     
 -0.564000000000000       0.796228036414153     
 -0.560000000000000       0.798240735926008     
 -0.556000000000000       0.800242983100203     
 -0.552000000000000       0.802234710881013     
 -0.548000000000000       0.804215852673229     
 -0.544000000000000       0.806186342342154     
 -0.540000000000000       0.808146114213605     
 -0.536000000000000       0.810095103073912     
 -0.532000000000000       0.812033244169919     
 -0.528000000000000       0.813960473208983     
 -0.524000000000000       0.815876726358976     
 -0.520000000000000       0.817781940248282     
 -0.516000000000000       0.819676051965799     
 -0.512000000000000       0.821558999060937     
 -0.508000000000000       0.823430719543623     
 -0.504000000000000       0.825291151884294     
 -0.500000000000000       0.827140235013903     
 -0.496000000000000       0.828977908323915     
 -0.492000000000000       0.830804111666309     
 -0.488000000000000       0.832618785353577     
 -0.484000000000000       0.834421870158727     
 -0.480000000000000       0.836213307315276     
 -0.476000000000000       0.837993038517258     
 -0.472000000000000       0.839761005919220     
 -0.468000000000000       0.841517152136222     
 -0.464000000000000       0.843261420243837     
 -0.460000000000000       0.844993753778152     
 -0.456000000000000       0.846714096735769     
 -0.452000000000000       0.848422393573800     
 -0.448000000000000       0.850118589209874     
 -0.444000000000000       0.851802629022132     
 -0.440000000000000       0.853474458849228     
 -0.436000000000000       0.855134024990331     
 -0.432000000000000       0.856781274205122     
 -0.428000000000000       0.858416153713796     
 -0.424000000000000       0.860038611197062     
 -0.420000000000000       0.861648594796143     
 -0.416000000000000       0.863246053112773     
 -0.412000000000000       0.864830935209203     
 -0.408000000000000       0.866403190608194     
 -0.404000000000000       0.867962769293023     
 -0.400000000000000       0.869509621707480     
 -0.396000000000000       0.871043698755868     
 -0.392000000000000       0.872564951803003     
 -0.388000000000000       0.874073332674217     
 -0.384000000000000       0.875568793655352     
 -0.380000000000000       0.877051287492767     
 -0.376000000000000       0.878520767393331     
 -0.372000000000000       0.879977187024429     
 -0.368000000000000       0.881420500513959     
 -0.364000000000000       0.882850662450333     
 -0.360000000000000       0.884267627882474     
 -0.356000000000000       0.885671352319822     
 -0.352000000000000       0.887061791732329     
 -0.348000000000000       0.888438902550459     
 -0.344000000000000       0.889802641665191     
 -0.340000000000000       0.891152966428018     
 -0.336000000000000       0.892489834650946     
 -0.332000000000000       0.893813204606494     
 -0.328000000000000       0.895123035027696     
 -0.324000000000000       0.896419285108097     
 -0.320000000000000       0.897701914501757     
 -0.316000000000000       0.898970883323250     
 -0.312000000000000       0.900226152147663     
 -0.308000000000000       0.901467682010597     
 -0.304000000000000       0.902695434408164     
 -0.300000000000000       0.903909371296994     
 -0.296000000000000       0.905109455094226     
 -0.292000000000000       0.906295648677515     
 -0.288000000000000       0.907467915385030     
 -0.284000000000000       0.908626219015452     
 -0.280000000000000       0.909770523827975     
 -0.276000000000000       0.910900794542309     
 -0.272000000000000       0.912016996338675     
 -0.268000000000000       0.913119094857809     
 -0.264000000000000       0.914207056200960     
 -0.260000000000000       0.915280846929892     
 -0.256000000000000       0.916340434066878     
 -0.252000000000000       0.917385785094710     
 -0.248000000000000       0.918416867956691     
 -0.244000000000000       0.919433651056637     
 -0.240000000000000       0.920436103258878     
 -0.236000000000000       0.921424193888258     
 -0.232000000000000       0.922397892730134     
 -0.228000000000000       0.923357170030377     
 -0.224000000000000       0.924301996495370     
 -0.220000000000000       0.925232343292013     
 -0.216000000000000       0.926148182047715     
 -0.212000000000000       0.927049484850401     
 -0.208000000000000       0.927936224248511     
 -0.204000000000000       0.928808373250994     
 -0.200000000000000       0.929665905327318     
 -0.196000000000000       0.930508794407460     
 -0.192000000000000       0.931337014881912     
 -0.188000000000000       0.932150541601681     
 -0.184000000000000       0.932949349878286     
 -0.180000000000000       0.933733415483759     
 -0.176000000000000       0.934502714650648     
 -0.172000000000000       0.935257224072011     
 -0.168000000000000       0.935996920901421     
 -0.164000000000000       0.936721782752967     
 -0.160000000000000       0.937431787701248     
 -0.156000000000000       0.938126914281378     
 -0.152000000000000       0.938807141488984     
 -0.148000000000000       0.939472448780207     
 -0.144000000000000       0.940122816071702     
 -0.140000000000000       0.940758223740637     
 -0.136000000000000       0.941378652624693     
 -0.132000000000000       0.941984084022064     
 -0.128000000000000       0.942574499691459     
 -0.124000000000000       0.943149881852101     
 -0.120000000000000       0.943710213183725     
 -0.116000000000000       0.944255476826579     
 -0.112000000000000       0.944785656381426     
 -0.108000000000000       0.945300735909542     
 -0.104000000000000       0.945800699932716     
 -0.100000000000000       0.946285533433252     
 -9.600000000000009E-002  0.946755221853966     
 -9.200000000000008E-002  0.947209751098189     
 -8.800000000000008E-002  0.947649107529762     
 -8.400000000000007E-002  0.948073277973045     
 -8.000000000000007E-002  0.948482249712906     
 -7.600000000000007E-002  0.948876010494731     
 -7.200000000000006E-002  0.949254548524416     
 -6.800000000000006E-002  0.949617852468373     
 -6.400000000000006E-002  0.949965911453527     
 -6.000000000000005E-002  0.950298715067315     
 -5.600000000000005E-002  0.950616253357689     
 -5.200000000000005E-002  0.950918516833114     
 -4.800000000000004E-002  0.951205496462570     
 -4.400000000000004E-002  0.951477183675547     
 -4.000000000000004E-002  0.951733570362052     
 -3.600000000000003E-002  0.951974648872604     
 -3.200000000000003E-002  0.952200412018235     
 -2.800000000000002E-002  0.952410853070492     
 -2.400000000000002E-002  0.952605965761435     
 -2.000000000000002E-002  0.952785744283635     
 -1.600000000000001E-002  0.952950183290181     
 -1.200000000000001E-002  0.953099277894673     
 -8.000000000000007E-003  0.953233023671224     
 -4.000000000000004E-003  0.953351416654461     
  0.000000000000000E+000  0.953454453339526     
  4.000000000000004E-003  0.953542130682071     
  8.000000000000007E-003  0.953614446098267     
  1.200000000000001E-002  0.953671397464792     
  1.600000000000001E-002  0.953712983118843     
  2.000000000000002E-002  0.953739201858128     
  2.400000000000002E-002  0.953750052940868     
  2.800000000000002E-002  0.953745536085798     
  3.200000000000003E-002  0.953725651472169     
  3.600000000000003E-002  0.953690399739741     
  4.000000000000004E-002  0.953639781988791     
  4.400000000000004E-002  0.953573799780108     
  4.800000000000004E-002  0.953492455134995     
  5.200000000000005E-002  0.953395750535269     
  5.600000000000005E-002  0.953283688923258     
  6.000000000000005E-002  0.953156273701808     
  6.400000000000006E-002  0.953013508734274     
  6.800000000000006E-002  0.952855398344527     
  7.200000000000006E-002  0.952681947316951     
  7.600000000000007E-002  0.952493160896443     
  8.000000000000007E-002  0.952289044788415     
  8.400000000000007E-002  0.952069605158790     
  8.800000000000008E-002  0.951834848634007     
  9.200000000000008E-002  0.951584782301018     
  9.600000000000009E-002  0.951319413707287     
  0.100000000000000       0.951038750860793     
  0.104000000000000       0.950742802230027     
  0.108000000000000       0.950431576743996     
  0.112000000000000       0.950105083792218     
  0.116000000000000       0.949763333224726     
  0.120000000000000       0.949406335352066     
  0.124000000000000       0.949034100945297     
  0.128000000000000       0.948646641235993     
  0.132000000000000       0.948243967916241     
  0.136000000000000       0.947826093138639     
  0.140000000000000       0.947393029516303     
  0.144000000000000       0.946944790122858     
  0.148000000000000       0.946481388492446     
  0.152000000000000       0.946002838619721     
  0.156000000000000       0.945509154959850     
  0.160000000000000       0.945000352428515     
  0.164000000000000       0.944476446401910     
  0.168000000000000       0.943937452716744     
  0.172000000000000       0.943383387670237     
  0.176000000000000       0.942814268020127     
  0.180000000000000       0.942230110984659     
  0.184000000000000       0.941630934242599     
  0.188000000000000       0.941016755933220     
  0.192000000000000       0.940387594656312     
  0.196000000000000       0.939743469472179     
  0.200000000000000       0.939084399901636     
  0.204000000000000       0.938410405926013     
  0.208000000000000       0.937721507987152     
  0.212000000000000       0.937017726987413     
  0.216000000000000       0.936299084289663     
  0.220000000000000       0.935565601717288     
  0.224000000000000       0.934817301554184     
  0.228000000000000       0.934054206544762     
  0.232000000000000       0.933276339893948     
  0.236000000000000       0.932483725267177     
  0.240000000000000       0.931676386790403     
  0.244000000000000       0.930854349050089     
  0.248000000000000       0.930017637093215     
  0.252000000000000       0.929166276427272     
  0.256000000000000       0.928300293020265     
  0.260000000000000       0.927419713300713     
  0.264000000000000       0.926524564157649     
  0.268000000000000       0.925614872940620     
  0.272000000000000       0.924690667459683     
  0.276000000000000       0.923751975985412     
  0.280000000000000       0.922798827248894     
  0.284000000000000       0.921831250441729     
  0.288000000000000       0.920849275216029     
  0.292000000000000       0.919852931684423     
  0.296000000000000       0.918842250420050     
  0.300000000000000       0.917817262456565     
  0.304000000000000       0.916777999288135     
  0.308000000000000       0.915724492869441     
  0.312000000000000       0.914656775615677     
  0.316000000000000       0.913574880402553     
  0.320000000000000       0.912478840566289     
  0.324000000000000       0.911368689903620     
  0.328000000000000       0.910244462671795     
  0.332000000000000       0.909106193588576     
  0.336000000000000       0.907953917832239     
  0.340000000000000       0.906787671041573     
  0.344000000000000       0.905607489315880     
  0.348000000000000       0.904413409214977     
  0.352000000000000       0.903205467759193     
  0.356000000000000       0.901983702429371     
  0.360000000000000       0.900748151166868     
  0.364000000000000       0.899498852373555     
  0.368000000000000       0.898235844911814     
  0.372000000000000       0.896959168104544     
  0.376000000000000       0.895668861735154     
  0.380000000000000       0.894364966047570     
  0.384000000000000       0.893047521746228     
  0.388000000000000       0.891716569996081     
  0.392000000000000       0.890372152422592     
  0.396000000000000       0.889014311111740     
  0.400000000000000       0.887643088610017     
  0.404000000000000       0.886258527924428     
  0.408000000000000       0.884860672522492     
  0.412000000000000       0.883449566332241     
  0.416000000000000       0.882025253742221     
  0.420000000000000       0.880587779601491     
  0.424000000000000       0.879137189219625     
  0.428000000000000       0.877673528366708     
  0.432000000000000       0.876196843273340     
  0.436000000000000       0.874707180630635     
  0.440000000000000       0.873204587590220     