 variables= "x","f"
 zone i=          10  datapacking=point
  0.000000000000000E+000   1.00000000000000     
  0.505246612792050       0.796638732802101     
  0.862919810916028       0.573187240874430     
  -1.58279423152373       0.285287367079672     
   1.13228037831466       0.438200793006716     
   1.39124794181522       0.340649248817693     
   1.74641161922109       0.246916412545799     
 -0.679634036066378       0.684040182354747     
  0.151319234491991       0.977615048930012     
 -0.890301940159423       0.557837251029088     
