 variables= "x","f"
 zone i=        1001  datapacking=point
  -2.00000000000000       0.200000000000000     
  -1.99600000000000       0.200641410460962     
  -1.99200000000000       0.201285651714632     
  -1.98800000000000       0.201932738627956     
  -1.98400000000000       0.202582686149179     
  -1.98000000000000       0.203235509308186     
  -1.97600000000000       0.203891223216849     
  -1.97200000000000       0.204549843069360     
  -1.96800000000000       0.205211384142578     
  -1.96400000000000       0.205875861796357     
  -1.96000000000000       0.206543291473893     
  -1.95600000000000       0.207213688702047     
  -1.95200000000000       0.207887069091683     
  -1.94800000000000       0.208563448338000     
  -1.94400000000000       0.209242842220853     
  -1.94000000000000       0.209925266605089     
  -1.93600000000000       0.210610737440860     
  -1.93200000000000       0.211299270763957     
  -1.92800000000000       0.211990882696117     
  -1.92400000000000       0.212685589445350     
  -1.92000000000000       0.213383407306248     
  -1.91600000000000       0.214084352660298     
  -1.91200000000000       0.214788441976191     
  -1.90800000000000       0.215495691810129     
  -1.90400000000000       0.216206118806127     
  -1.90000000000000       0.216919739696312     
  -1.89600000000000       0.217636571301223     
  -1.89200000000000       0.218356630530100     
  -1.88800000000000       0.219079934381178     
  -1.88400000000000       0.219806499941971     
  -1.88000000000000       0.220536344389555     
  -1.87600000000000       0.221269484990848     
  -1.87200000000000       0.222005939102883     
  -1.86800000000000       0.222745724173079     
  -1.86400000000000       0.223488857739509     
  -1.86000000000000       0.224235357431160     
  -1.85600000000000       0.224985240968192     
  -1.85200000000000       0.225738526162192     
  -1.84800000000000       0.226495230916418     
  -1.84400000000000       0.227255373226045     
  -1.84000000000000       0.228018971178402     
  -1.83600000000000       0.228786042953207     
  -1.83200000000000       0.229556606822790     
  -1.82800000000000       0.230330681152317     
  -1.82400000000000       0.231108284400006     
  -1.82000000000000       0.231889435117336     
  -1.81600000000000       0.232674151949251     
  -1.81200000000000       0.233462453634357     
  -1.80800000000000       0.234254359005112     
  -1.80400000000000       0.235049886988014     
  -1.80000000000000       0.235849056603774     
  -1.79600000000000       0.236651886967486     
  -1.79200000000000       0.237458397288795     
  -1.78800000000000       0.238268606872048     
  -1.78400000000000       0.239082535116443     
  -1.78000000000000       0.239900201516169     
  -1.77600000000000       0.240721625660540     
  -1.77200000000000       0.241546827234115     
  -1.76800000000000       0.242375826016815     
  -1.76400000000000       0.243208641884030     
  -1.76000000000000       0.244045294806716     
  -1.75600000000000       0.244885804851482     
  -1.75200000000000       0.245730192180669     
  -1.74800000000000       0.246578477052421     
  -1.74400000000000       0.247430679820741     
  -1.74000000000000       0.248286820935545     
  -1.73600000000000       0.249146920942692     
  -1.73200000000000       0.250011000484021     
  -1.72800000000000       0.250879080297362     
  -1.72400000000000       0.251751181216542     
  -1.72000000000000       0.252627324171382     
  -1.71600000000000       0.253507530187677     
  -1.71200000000000       0.254391820387164     
  -1.70800000000000       0.255280215987485     
  -1.70400000000000       0.256172738302128     
  -1.70000000000000       0.257069408740360     
  -1.69600000000000       0.257970248807146     
  -1.69200000000000       0.258875280103053     
  -1.68800000000000       0.259784524324145     
  -1.68400000000000       0.260698003261853     
  -1.68000000000000       0.261615738802846     
  -1.67600000000000       0.262537752928871     
  -1.67200000000000       0.263464067716589     
  -1.66800000000000       0.264394705337389     
  -1.66400000000000       0.265329688057192     
  -1.66000000000000       0.266269038236234     
  -1.65600000000000       0.267212778328830     
  -1.65200000000000       0.268160930883129     
  -1.64800000000000       0.269113518540845     
  -1.64400000000000       0.270070564036972     
  -1.64000000000000       0.271032090199480     
  -1.63600000000000       0.271998119948995     
  -1.63200000000000       0.272968676298457     
  -1.62800000000000       0.273943782352761     
  -1.62400000000000       0.274923461308372     
  -1.62000000000000       0.275907736452930     
  -1.61600000000000       0.276896631164827     
  -1.61200000000000       0.277890168912760     
  -1.60800000000000       0.278888373255274     
  -1.60400000000000       0.279891267840269     
  -1.60000000000000       0.280898876404494     
  -1.59600000000000       0.281911222773014     
  -1.59200000000000       0.282928330858653     
  -1.58800000000000       0.283950224661418     
  -1.58400000000000       0.284976928267887     
  -1.58000000000000       0.286008465850589     
  -1.57600000000000       0.287044861667340     
  -1.57200000000000       0.288086140060567     
  -1.56800000000000       0.289132325456598     
  -1.56400000000000       0.290183442364925     
  -1.56000000000000       0.291239515377446     
  -1.55600000000000       0.292300569167668     
  -1.55200000000000       0.293366628489889     
  -1.54800000000000       0.294437718178349     
  -1.54400000000000       0.295513863146348     
  -1.54000000000000       0.296595088385336     
  -1.53600000000000       0.297681418963973     
  -1.53200000000000       0.298772880027152     
  -1.52800000000000       0.299869496794995     
  -1.52400000000000       0.300971294561810     
  -1.52000000000000       0.302078298695022     
  -1.51600000000000       0.303190534634061     
  -1.51200000000000       0.304308027889222     
  -1.50800000000000       0.305430804040483     
  -1.50400000000000       0.306558888736291     
  -1.50000000000000       0.307692307692308     
  -1.49600000000000       0.308831086690121     
  -1.49200000000000       0.309975251575914     
  -1.48800000000000       0.311124828259095     
  -1.48400000000000       0.312279842710889     
  -1.48000000000000       0.313440320962889     
  -1.47600000000000       0.314606289105562     
  -1.47200000000000       0.315777773286716     
  -1.46800000000000       0.316954799709923     
  -1.46400000000000       0.318137394632895     
  -1.46000000000000       0.319325584365819     
  -1.45600000000000       0.320519395269647     
  -1.45200000000000       0.321718853754330     
  -1.44800000000000       0.322923986277022     
  -1.44400000000000       0.324134819340217     
  -1.44000000000000       0.325351379489849     
  -1.43600000000000       0.326573693313338     
  -1.43200000000000       0.327801787437587     
  -1.42800000000000       0.329035688526920     
  -1.42400000000000       0.330275423280982     
  -1.42000000000000       0.331521018432569     
  -1.41600000000000       0.332772500745410     
  -1.41200000000000       0.334029897011902     
  -1.40800000000000       0.335293234050771     
  -1.40400000000000       0.336562538704692     
  -1.40000000000000       0.337837837837838     
  -1.39600000000000       0.339119158333379     
  -1.39200000000000       0.340406527090913     
  -1.38800000000000       0.341699971023842     
  -1.38400000000000       0.342999517056680     
  -1.38000000000000       0.344305192122297     
  -1.37600000000000       0.345617023159105     
  -1.37200000000000       0.346935037108172     
  -1.36800000000000       0.348259260910266     
  -1.36400000000000       0.349589721502844     
  -1.36000000000000       0.350926445816957     
  -1.35600000000000       0.352269460774091     
  -1.35200000000000       0.353618793282940     
  -1.34800000000000       0.354974470236101     
  -1.34400000000000       0.356336518506693     
  -1.34000000000000       0.357704964944913     
  -1.33600000000000       0.359079836374500     
  -1.33200000000000       0.360461159589132     
  -1.32800000000000       0.361848961348741     
  -1.32400000000000       0.363243268375751     
  -1.32000000000000       0.364644107351225     
  -1.31600000000000       0.366051504910947     
  -1.31200000000000       0.367465487641401     
  -1.30800000000000       0.368886082075678     
  -1.30400000000000       0.370313314689292     
  -1.30000000000000       0.371747211895911     
  -1.29600000000000       0.373187800042991     
  -1.29200000000000       0.374635105407333     
  -1.28800000000000       0.376089154190536     
  -1.28400000000000       0.377549972514362     
  -1.28000000000000       0.379017586416010     
  -1.27600000000000       0.380492021843286     
  -1.27200000000000       0.381973304649685     
  -1.26800000000000       0.383461460589365     
  -1.26400000000000       0.384956515312030     
  -1.26000000000000       0.386458494357706     
  -1.25600000000000       0.387967423151413     
  -1.25200000000000       0.389483326997738     
  -1.24800000000000       0.391006231075298     
  -1.24400000000000       0.392536160431099     
  -1.24000000000000       0.394073139974779     
  -1.23600000000000       0.395617194472753     
  -1.23200000000000       0.397168348542233     
  -1.22800000000000       0.398726626645146     
  -1.22400000000000       0.400292053081929     
  -1.22000000000000       0.401864651985211     
  -1.21600000000000       0.403444447313383     
  -1.21200000000000       0.405031462844034     
  -1.20800000000000       0.406625722167283     
  -1.20400000000000       0.408227248678977     
  -1.20000000000000       0.409836065573771     
  -1.19600000000000       0.411452195838079     
  -1.19200000000000       0.413075662242902     
  -1.18800000000000       0.414706487336523     
  -1.18400000000000       0.416344693437075     
  -1.18000000000000       0.417990302624979     
  -1.17600000000000       0.419643336735242     
  -1.17200000000000       0.421303817349628     
  -1.16800000000000       0.422971765788690     
  -1.16400000000000       0.424647203103661     
  -1.16000000000000       0.426330150068213     
  -1.15600000000000       0.428020627170065     
  -1.15200000000000       0.429718654602459     
  -1.14800000000000       0.431424252255486     
  -1.14400000000000       0.433137439707268     
  -1.14000000000000       0.434858236214994     
  -1.13600000000000       0.436586660705803     
  -1.13200000000000       0.438322731767528     
  -1.12800000000000       0.440066467639272     
  -1.12400000000000       0.441817886201851     
  -1.12000000000000       0.443577004968062     
  -1.11600000000000       0.445343841072815     
  -1.11200000000000       0.447118411263092     
  -1.10800000000000       0.448900731887753     
  -1.10400000000000       0.450690818887190     
  -1.10000000000000       0.452488687782805     
  -1.09600000000000       0.454294353666337     
  -1.09200000000000       0.456107831189018     
  -1.08800000000000       0.457929134550570     
  -1.08400000000000       0.459758277488028     
  -1.08000000000000       0.461595273264402     
  -1.07600000000000       0.463440134657165     
  -1.07200000000000       0.465292873946577     
  -1.06800000000000       0.467153502903826     
  -1.06400000000000       0.469022032779012     
  -1.06000000000000       0.470898474288943     
  -1.05600000000000       0.472782837604769     
  -1.05200000000000       0.474675132339427     
  -1.04800000000000       0.476575367534923     
  -1.04400000000000       0.478483551649429     
  -1.04000000000000       0.480399692544197     
  -1.03600000000000       0.482323797470308     
  -1.03200000000000       0.484255873055228     
  -1.02800000000000       0.486195925289189     
  -1.02400000000000       0.488143959511388     
  -1.02000000000000       0.490099980396001     
  -1.01600000000000       0.492063991938023     
  -1.01200000000000       0.494035997438917     
  -1.00800000000000       0.496015999492080     
  -1.00400000000000       0.498003999968128     
  -1.00000000000000       0.500000000000000     
 -0.996000000000000       0.502003999967872     
 -0.992000000000000       0.504015999483888     
 -0.988000000000000       0.506035997376709     
 -0.984000000000000       0.508063991675880     
 -0.980000000000000       0.510099979596001     
 -0.976000000000000       0.512143957520732     
 -0.972000000000000       0.514195920986598     
 -0.968000000000000       0.516255864666623     
 -0.964000000000000       0.518323782353771     
 -0.960000000000000       0.520399666944213     
 -0.956000000000000       0.522483510420411     
 -0.952000000000000       0.524575303834016     
 -0.948000000000000       0.526675037288593     
 -0.944000000000000       0.528782699922163     
 -0.940000000000000       0.530898279889573     
 -0.936000000000000       0.533021764344682     
 -0.932000000000000       0.535153139422377     
 -0.928000000000000       0.537292390220419     
 -0.924000000000000       0.539439500781108     
 -0.920000000000000       0.541594454072790     
 -0.916000000000000       0.543757231971185     
 -0.912000000000000       0.545927815240558     
 -0.908000000000000       0.548106183514720     
 -0.904000000000000       0.550292315277876     
 -0.900000000000000       0.552486187845304     
 -0.896000000000000       0.554687777343889     
 -0.892000000000000       0.556897058692495     
 -0.888000000000000       0.559114005582194     
 -0.884000000000000       0.561338590456346     
 -0.880000000000000       0.563570784490532     
 -0.876000000000000       0.565810557572356     
 -0.872000000000000       0.568057878281102     
 -0.868000000000000       0.570312713867268     
 -0.864000000000000       0.572575030231962     
 -0.860000000000000       0.574844791906185     
 -0.856000000000000       0.577121962029992     
 -0.852000000000000       0.579406502331532     
 -0.848000000000000       0.581698373105990     
 -0.844000000000000       0.583997533194420     
 -0.840000000000000       0.586303939962477     
 -0.836000000000000       0.588617549279061     
 -0.832000000000000       0.590938315494875     
 -0.828000000000000       0.593266191420896     
 -0.824000000000000       0.595601128306777     
 -0.820000000000000       0.597943075819182     
 -0.816000000000000       0.600291982020055     
 -0.812000000000000       0.602647793344840     
 -0.808000000000000       0.605010454580655     
 -0.804000000000000       0.607379908844423     
 -0.800000000000000       0.609756097560976     
 -0.796000000000000       0.612138960441132     
 -0.792000000000000       0.614528435459766     
 -0.788000000000000       0.616924458833865     
 -0.784000000000000       0.619326965000594     
 -0.780000000000000       0.621735886595374     
 -0.776000000000000       0.624151154429975     
 -0.772000000000000       0.626572697470651     
 -0.768000000000000       0.629000442816312     
 -0.764000000000000       0.631434315676746     
 -0.760000000000000       0.633874239350913     
 -0.756000000000000       0.636320135205302     
 -0.752000000000000       0.638771922652385     
 -0.748000000000000       0.641229519129159     
 -0.744000000000000       0.643692840075801     
 -0.740000000000000       0.646161798914448     
 -0.736000000000000       0.648636307028104     
 -0.732000000000000       0.651116273739699     
 -0.728000000000000       0.653601606291308     
 -0.724000000000000       0.656092209823537     
 -0.720000000000000       0.658587987355111     
 -0.716000000000000       0.661088839762643     
 -0.712000000000000       0.663594665760639     
 -0.708000000000000       0.666105361881721     
 -0.704000000000000       0.668620822457101     
 -0.700000000000000       0.671140939597315     
 -0.696000000000000       0.673665603173234     
 -0.692000000000000       0.676194700797369     
 -0.688000000000000       0.678728117805482     
 -0.684000000000000       0.681265737238530     
 -0.680000000000000       0.683807439824945     
 -0.676000000000000       0.686353103963277     
 -0.672000000000000       0.688902605705216     
 -0.668000000000000       0.691455818739006     
 -0.664000000000000       0.694012614373279     
 -0.660000000000000       0.696572861521315     
 -0.656000000000000       0.699136426685758     
 -0.652000000000000       0.701703173943796     
 -0.648000000000000       0.704272964932841     
 -0.644000000000000       0.706845658836702     
 -0.640000000000000       0.709421112372304     
 -0.636000000000000       0.711999179776945     
 -0.632000000000000       0.714579712796122     
 -0.628000000000000       0.717162560671953     
 -0.624000000000000       0.719747570132203     
 -0.620000000000000       0.722334585379948     
 -0.616000000000000       0.724923448083882     
 -0.612000000000000       0.727513997369309     
 -0.608000000000000       0.730106069809822     
 -0.604000000000000       0.732699499419702     
 -0.600000000000000       0.735294117647059     
 -0.596000000000000       0.737889753367729     
 -0.592000000000000       0.740486232879958     
 -0.588000000000000       0.743083379899892     
 -0.584000000000000       0.745681015557889     
 -0.580000000000000       0.748278958395690     
 -0.576000000000000       0.750877024364458     
 -0.572000000000000       0.753475026823711     
 -0.568000000000000       0.756072776541179     
 -0.564000000000000       0.758670081693594     
 -0.560000000000000       0.761266747868453     
 -0.556000000000000       0.763862578066755     
 -0.552000000000000       0.766457372706760     
 -0.548000000000000       0.769050929628764     
 -0.544000000000000       0.771643044100943     
 -0.540000000000000       0.774233508826262     
 -0.536000000000000       0.776822113950482     
 -0.532000000000000       0.779408647071294     
 -0.528000000000000       0.781992893248586     
 -0.524000000000000       0.784574635015880     
 -0.520000000000000       0.787153652392947     
 -0.516000000000000       0.789729722899635     
 -0.512000000000000       0.792302621570914     
 -0.508000000000000       0.794872120973178     
 -0.504000000000000       0.797437991221803     
 -0.500000000000000       0.800000000000000     
 -0.496000000000000       0.802557912578972     
 -0.492000000000000       0.805111491839390     
 -0.488000000000000       0.807660498294221     
 -0.484000000000000       0.810204690112910     
 -0.480000000000000       0.812743823146944     
 -0.476000000000000       0.815277650956810     
 -0.472000000000000       0.817805924840364     
 -0.468000000000000       0.820328393862631     
 -0.464000000000000       0.822844804887040     
 -0.460000000000000       0.825354902608121     
 -0.456000000000000       0.827858429585673     
 -0.452000000000000       0.830355126280408     
 -0.448000000000000       0.832844731091093     
 -0.444000000000000       0.835326980393205     
 -0.440000000000000       0.837801608579088     
 -0.436000000000000       0.840268348099649     
 -0.432000000000000       0.842726929507578     
 -0.428000000000000       0.845177081502116     
 -0.424000000000000       0.847618530975372     
 -0.420000000000000       0.850051003060184     
 -0.416000000000000       0.852474221179552     
 -0.412000000000000       0.854887907097621     
 -0.408000000000000       0.857291780972237     
 -0.404000000000000       0.859685561409059     
 -0.400000000000000       0.862068965517241     
 -0.396000000000000       0.864441708966681     
 -0.392000000000000       0.866803506046821     
 -0.388000000000000       0.869154069727016     
 -0.384000000000000       0.871493111718445     
 -0.380000000000000       0.873820342537574     
 -0.376000000000000       0.876135471571156     
 -0.372000000000000       0.878438207142757     
 -0.368000000000000       0.880728256580802     
 -0.364000000000000       0.883005326288128     
 -0.360000000000000       0.885269121813031     
 -0.356000000000000       0.887519347921785     
 -0.352000000000000       0.889755708672627     
 -0.348000000000000       0.891977907491187     
 -0.344000000000000       0.894185647247339     
 -0.340000000000000       0.896378630333453     
 -0.336000000000000       0.898556558744034     
 -0.332000000000000       0.900719134156711     
 -0.328000000000000       0.902866058014561     
 -0.324000000000000       0.904997031609736     
 -0.320000000000000       0.907111756168360     
 -0.316000000000000       0.909209932936675     
 -0.312000000000000       0.911291263268401     
 -0.308000000000000       0.913355448713265     
 -0.304000000000000       0.915402191106685     
 -0.300000000000000       0.917431192660550     
 -0.296000000000000       0.919442156055078     
 -0.292000000000000       0.921434784531690     
 -0.288000000000000       0.923408781986880     
 -0.284000000000000       0.925363853067026     
 -0.280000000000000       0.927299703264095     
 -0.276000000000000       0.929216039012206     
 -0.272000000000000       0.931112567784995     
 -0.268000000000000       0.932988998193733     
 -0.264000000000000       0.934845040086155     
 -0.260000000000000       0.936680404645935     
 -0.256000000000000       0.938494804492762     
 -0.252000000000000       0.940287953782966     
 -0.248000000000000       0.942059568310623     
 -0.244000000000000       0.943809365609097     
 -0.240000000000000       0.945537065052950     
 -0.236000000000000       0.947242387960170     
 -0.232000000000000       0.948925057694643     
 -0.228000000000000       0.950584799768818     
 -0.224000000000000       0.952221341946493     
 -0.220000000000000       0.953834414345670     
 -0.216000000000000       0.955423749541397     
 -0.212000000000000       0.956989082668545     
 -0.208000000000000       0.958530151524446     
 -0.204000000000000       0.960046696671326     
 -0.200000000000000       0.961538461538461     
 -0.196000000000000       0.963005192523998     
 -0.192000000000000       0.964446639096352     
 -0.188000000000000       0.965862553895130     
 -0.184000000000000       0.967252692831497     
 -0.180000000000000       0.968616815187912     
 -0.176000000000000       0.969954683717177     
 -0.172000000000000       0.971266064740711     
 -0.168000000000000       0.972550728245985     
 -0.164000000000000       0.973808447983048     
 -0.160000000000000       0.975039001560062     
 -0.156000000000000       0.976242170537792     
 -0.152000000000000       0.977417740522958     
 -0.148000000000000       0.978565501260392     
 -0.144000000000000       0.979685246723933     
 -0.140000000000000       0.980776775205963     
 -0.136000000000000       0.981839889405555     
 -0.132000000000000       0.982874396515121     
 -0.128000000000000       0.983880108305522     
 -0.124000000000000       0.984856841209562     
 -0.120000000000000       0.985804416403785     
 -0.116000000000000       0.986722659888540     
 -0.112000000000000       0.987611402566209     
 -0.108000000000000       0.988470480317576     
 -0.104000000000000       0.989299734076232     
 -0.100000000000000       0.990099009900990     
 -9.600000000000009E-002  0.990868159046230     
 -9.200000000000008E-002  0.991607038030113     
 -8.800000000000008E-002  0.992315508700622     
 -8.400000000000007E-002  0.992993438299360     
 -8.000000000000007E-002  0.993640699523052     
 -7.600000000000007E-002  0.994257170582714     
 -7.200000000000006E-002  0.994842735260410     
 -6.800000000000006E-002  0.995397282963576     
 -6.400000000000006E-002  0.995920708776850     
 -6.000000000000005E-002  0.996412913511359     
 -5.600000000000005E-002  0.996873803751435     
 -5.200000000000005E-002  0.997303291898706     
 -4.800000000000004E-002  0.997701296213524     
 -4.400000000000004E-002  0.998067740853707     
 -4.000000000000004E-002  0.998402555910543     
 -3.600000000000003E-002  0.998705677442035     
 -3.200000000000003E-002  0.998977047503357     
 -2.800000000000002E-002  0.999216614174487     
 -2.400000000000002E-002  0.999424331585007     
 -2.000000000000002E-002  0.999600159936026     
 -1.600000000000001E-002  0.999744065519227     
 -1.200000000000001E-002  0.999856020733014     
 -8.000000000000007E-003  0.999936004095738     
 -4.000000000000004E-003  0.999984000255996     
  0.000000000000000E+000   1.00000000000000     
  4.000000000000004E-003  0.999984000255996     
  8.000000000000007E-003  0.999936004095738     
  1.200000000000001E-002  0.999856020733014     
  1.600000000000001E-002  0.999744065519227     
  2.000000000000002E-002  0.999600159936026     
  2.400000000000002E-002  0.999424331585007     
  2.800000000000002E-002  0.999216614174487     
  3.200000000000003E-002  0.998977047503357     
  3.600000000000003E-002  0.998705677442035     
  4.000000000000004E-002  0.998402555910543     
  4.400000000000004E-002  0.998067740853707     
  4.800000000000004E-002  0.997701296213524     
  5.200000000000005E-002  0.997303291898706     
  5.600000000000005E-002  0.996873803751435     
  6.000000000000005E-002  0.996412913511359     
  6.400000000000006E-002  0.995920708776850     
  6.800000000000006E-002  0.995397282963576     
  7.200000000000006E-002  0.994842735260410     
  7.600000000000007E-002  0.994257170582714     
  8.000000000000007E-002  0.993640699523052     
  8.400000000000007E-002  0.992993438299360     
  8.800000000000008E-002  0.992315508700622     
  9.200000000000008E-002  0.991607038030113     
  9.600000000000009E-002  0.990868159046230     
  0.100000000000000       0.990099009900990     
  0.104000000000000       0.989299734076232     
  0.108000000000000       0.988470480317576     
  0.112000000000000       0.987611402566209     
  0.116000000000000       0.986722659888540     
  0.120000000000000       0.985804416403785     
  0.124000000000000       0.984856841209562     
  0.128000000000000       0.983880108305522     
  0.132000000000000       0.982874396515120     
  0.136000000000000       0.981839889405555     
  0.140000000000000       0.980776775205963     
  0.144000000000000       0.979685246723932     
  0.148000000000000       0.978565501260392     
  0.152000000000000       0.977417740522958     
  0.156000000000000       0.976242170537792     
  0.160000000000000       0.975039001560062     
  0.164000000000000       0.973808447983048     
  0.168000000000000       0.972550728245985     
  0.172000000000000       0.971266064740711     
  0.176000000000000       0.969954683717177     
  0.180000000000000       0.968616815187912     
  0.184000000000000       0.967252692831497     
  0.188000000000000       0.965862553895130     
  0.192000000000000       0.964446639096352     
  0.196000000000000       0.963005192523998     
  0.200000000000000       0.961538461538461     
  0.204000000000000       0.960046696671326     
  0.208000000000000       0.958530151524446     
  0.212000000000000       0.956989082668545     
  0.216000000000000       0.955423749541397     
  0.220000000000000       0.953834414345670     
  0.224000000000000       0.952221341946493     
  0.228000000000000       0.950584799768818     
  0.232000000000000       0.948925057694643     
  0.236000000000000       0.947242387960170     
  0.240000000000000       0.945537065052950     
  0.244000000000000       0.943809365609097     
  0.248000000000000       0.942059568310623     
  0.252000000000000       0.940287953782966     
  0.256000000000000       0.938494804492762     
  0.260000000000000       0.936680404645935     
  0.264000000000000       0.934845040086155     
  0.268000000000000       0.932988998193733     
  0.272000000000000       0.931112567784995     
  0.276000000000000       0.929216039012206     
  0.280000000000000       0.927299703264095     
  0.284000000000000       0.925363853067026     
  0.288000000000000       0.923408781986880     
  0.292000000000000       0.921434784531690     
  0.296000000000000       0.919442156055078     
  0.300000000000000       0.917431192660551     
  0.304000000000000       0.915402191106685     
  0.308000000000000       0.913355448713265     
  0.312000000000000       0.911291263268401     
  0.316000000000000       0.909209932936675     
  0.320000000000000       0.907111756168360     
  0.324000000000000       0.904997031609736     
  0.328000000000000       0.902866058014562     
  0.332000000000000       0.900719134156711     
  0.336000000000000       0.898556558744034     
  0.340000000000000       0.896378630333453     
  0.344000000000000       0.894185647247339     
  0.348000000000000       0.891977907491187     
  0.352000000000000       0.889755708672627     
  0.356000000000000       0.887519347921785     
  0.360000000000000       0.885269121813031     
  0.364000000000000       0.883005326288128     
  0.368000000000000       0.880728256580802     
  0.372000000000000       0.878438207142757     
  0.376000000000000       0.876135471571156     
  0.380000000000000       0.873820342537574     
  0.384000000000000       0.871493111718445     
  0.388000000000000       0.869154069727016     
  0.392000000000000       0.866803506046821     
  0.396000000000000       0.864441708966681     
  0.400000000000000       0.862068965517241     
  0.404000000000000       0.859685561409059     
  0.408000000000000       0.857291780972237     
  0.412000000000000       0.854887907097621     
  0.416000000000000       0.852474221179552     
  0.420000000000000       0.850051003060184     
  0.424000000000000       0.847618530975372     
  0.428000000000000       0.845177081502116     
  0.432000000000000       0.842726929507578     
  0.436000000000000       0.840268348099649     
  0.440000000000000       0.837801608579088     