 variables= "x","y","f"
 zone i=          22  datapacking=point
  0.000000000000000E+000  0.000000000000000E+000   1.00000000000000     
 -0.595351471917040        1.92781273624049        250.094260972173     
  -1.49010040354142       -1.99878832252424        1786.35494570344     
   1.99846520914721       -1.22741443057026        2727.17093414858     
  0.286322272144814       -1.99802362304737        433.151027595482     
  -1.99934977172583       0.497280654965341        1234.07929878015     
  -1.99603678719776        1.48423605622034        633.939636779280     
   1.50149823732088        1.99762690931254        6.84972260537441     
   1.87897193967383        1.20012285542910        543.854924410503     
   1.74365495834110       0.310850207153836        745.560443487501     
  -1.99571466270144       -1.31066692706300        2811.13505291243     
  -1.42088249210042      -0.701025177584848        745.663807764420     
  0.888663348502601        1.22072844874535        18.5890045863250     
   1.99720308183621       -1.99614258465431        3582.97230762148     
   1.32095130424170       -1.09918100852340        808.989711902912     
  -1.35787776597431       0.723378320431121        131.101238489033     
  0.765585722686932        1.99510053986746        198.577143875198     
  -1.42271093384929        1.25923843024613        64.3718295825302     
  -1.40556779488473        1.99625441448149        5.82933091307827     
  -1.98733009001515       -1.99255308601555        3539.70091433307     
   1.99248616952390        1.89874349906997        429.995848544755     
   1.99773296676716      -0.172917512855661        1734.76391691576     
