 variables= "x","y","fPC"
 zone i=         101  j=         101  datapacking=point
  -2.00000000000000       -2.00000000000000       0.110917163189143     
  -2.00000000000000       -1.96000000000000       0.164661762144980     
  -2.00000000000000       -1.92000000000000       0.194303481556498     
  -2.00000000000000       -1.88000000000000       0.206039263243442     
  -2.00000000000000       -1.84000000000000       0.204919946463384     
  -2.00000000000000       -1.80000000000000       0.195013853169100     
  -2.00000000000000       -1.76000000000000       0.179552148584765     
  -2.00000000000000       -1.72000000000000       0.161057528913169     
  -2.00000000000000       -1.68000000000000       0.141457692200362     
  -2.00000000000000       -1.64000000000000       0.122184956438310     
  -2.00000000000000       -1.60000000000000       0.104263300805053     
  -2.00000000000000       -1.56000000000000       8.838402145017105E-002
  -2.00000000000000       -1.52000000000000       7.497111235543642E-002
  -2.00000000000000       -1.48000000000000       6.423740446080527E-002
  -2.00000000000000       -1.44000000000000       5.623242236923334E-002
  -2.00000000000000       -1.40000000000000       5.088284745461195E-002
  -2.00000000000000       -1.36000000000000       4.802640901959455E-002
  -2.00000000000000       -1.32000000000000       4.743996120955106E-002
  -2.00000000000000       -1.28000000000000       4.886244260889105E-002
  -2.00000000000000       -1.24000000000000       5.201335775213695E-002
  -2.00000000000000       -1.20000000000000       5.660736509782822E-002
  -2.00000000000000       -1.16000000000000       6.236550426431018E-002
  -2.00000000000000       -1.12000000000000       6.902354643621175E-002
  -2.00000000000000       -1.08000000000000       7.633790574411696E-002
  -2.00000000000000       -1.04000000000000       8.408950602202668E-002
  -2.00000000000000       -1.00000000000000       9.208595658189721E-002
  -2.00000000000000      -0.960000000000000       0.100162352436915     
  -2.00000000000000      -0.920000000000000       0.108180978679281     
  -2.00000000000000      -0.880000000000000       0.116030165398901     
  -2.00000000000000      -0.840000000000000       0.123622508541097     
  -2.00000000000000      -0.800000000000000       0.130892643368649     
  -2.00000000000000      -0.760000000000000       0.137794730640800     
  -2.00000000000000      -0.720000000000000       0.144299791173868     
  -2.00000000000000      -0.680000000000000       0.150393002029185     
  -2.00000000000000      -0.640000000000000       0.156071047109073     
  -2.00000000000000      -0.600000000000000       0.161339596354605     
  -2.00000000000000      -0.560000000000000       0.166210970954989     
  -2.00000000000000      -0.520000000000000       0.170702036921568     
  -2.00000000000000      -0.480000000000000       0.174832355974810     
  -2.00000000000000      -0.440000000000000       0.178622610864187     
  -2.00000000000000      -0.400000000000000       0.182093311913481     
  -2.00000000000000      -0.360000000000000       0.185263782682284     
  -2.00000000000000      -0.320000000000000       0.188151415082517     
  -2.00000000000000      -0.280000000000000       0.190771178011757     
  -2.00000000000000      -0.240000000000000       0.193135358486978     
  -2.00000000000000      -0.200000000000000       0.195253510308047     
  -2.00000000000000      -0.160000000000000       0.197132582374112     
  -2.00000000000000      -0.120000000000000       0.198777196842735     
  -2.00000000000000      -8.000000000000007E-002  0.200190046285465     
  -2.00000000000000      -4.000000000000004E-002  0.201372378779485     
  -2.00000000000000       0.000000000000000E+000  0.202324540407002     
  -2.00000000000000       4.000000000000004E-002  0.203046545837367     
  -2.00000000000000       8.000000000000007E-002  0.203538649465366     
  -2.00000000000000       0.120000000000000       0.203801891897853     
  -2.00000000000000       0.160000000000000       0.203838599344079     
  -2.00000000000000       0.200000000000000       0.203652816597349     
  -2.00000000000000       0.240000000000000       0.203250657721613     
  -2.00000000000000       0.280000000000000       0.202640562200723     
  -2.00000000000000       0.320000000000000       0.201833448094969     
  -2.00000000000000       0.360000000000000       0.200842757603631     
  -2.00000000000000       0.400000000000000       0.199684394278244     
  -2.00000000000000       0.440000000000000       0.198376554893575     
  -2.00000000000000       0.480000000000000       0.196939462586550     
  -2.00000000000000       0.520000000000000       0.195395011241944     
  -2.00000000000000       0.560000000000000       0.193766334162360     
  -2.00000000000000       0.600000000000000       0.192077312733068     
  -2.00000000000000       0.640000000000000       0.190352043004608     
  -2.00000000000000       0.680000000000000       0.188614279791759     
  -2.00000000000000       0.720000000000000       0.186886878951518     
  -2.00000000000000       0.760000000000000       0.185191258879367     
  -2.00000000000000       0.800000000000000       0.183546901876983     
  -2.00000000000000       0.840000000000000       0.181970914820212     
  -2.00000000000000       0.880000000000000       0.180477666418091     
  -2.00000000000000       0.920000000000000       0.179078515226588     
  -2.00000000000000       0.960000000000000       0.177781638388841     
  -2.00000000000000        1.00000000000000       0.176591965741997     
  -2.00000000000000        1.04000000000000       0.175511217383265     
  -2.00000000000000        1.08000000000000       0.174538034949574     
  -2.00000000000000        1.12000000000000       0.173668187660414     
  -2.00000000000000        1.16000000000000       0.172894823526791     
  -2.00000000000000        1.20000000000000       0.172208723965245     
  -2.00000000000000        1.24000000000000       0.171598506299064     
  -2.00000000000000        1.28000000000000       0.171050703203723     
  -2.00000000000000        1.32000000000000       0.170549630984794     
  -2.00000000000000        1.36000000000000       0.170076939588608     
  -2.00000000000000        1.40000000000000       0.169610716363260     
  -2.00000000000000        1.44000000000000       0.169123992734864     
  -2.00000000000000        1.48000000000000       0.168582478065684     
  -2.00000000000000        1.52000000000000       0.167941317941409     
  -2.00000000000000        1.56000000000000       0.167140644919143     
  -2.00000000000000        1.60000000000000       0.166099658279860     
  -2.00000000000000        1.64000000000000       0.164708935494073     
  -2.00000000000000        1.68000000000000       0.162820641851485     
  -2.00000000000000        1.72000000000000       0.160236265949033     
  -2.00000000000000        1.76000000000000       0.156691467401951     
  -2.00000000000000        1.80000000000000       0.151837579162848     
  -2.00000000000000        1.84000000000000       0.145219260130271     
  -2.00000000000000        1.88000000000000       0.136247744223928     
  -2.00000000000000        1.92000000000000       0.124169079723991     
  -2.00000000000000        1.96000000000000       0.108026697341457     
  -2.00000000000000        2.00000000000000       8.661758712899292E-002
  -1.96000000000000       -2.00000000000000       0.165339749476639     
  -1.96000000000000       -1.96000000000000       0.214053797489452     
  -1.96000000000000       -1.92000000000000       0.240007563477712     
  -1.96000000000000       -1.88000000000000       0.249128104292669     
  -1.96000000000000       -1.84000000000000       0.246234809190769     
  -1.96000000000000       -1.80000000000000       0.235198951868901     
  -1.96000000000000       -1.76000000000000       0.219085327381203     
  -1.96000000000000       -1.72000000000000       0.200277509293701     
  -1.96000000000000       -1.68000000000000       0.180588167179471     
  -1.96000000000000       -1.64000000000000       0.161355793135877     
  -1.96000000000000       -1.60000000000000       0.143529098341346     
  -1.96000000000000       -1.56000000000000       0.127740256687275     
  -1.96000000000000       -1.52000000000000       0.114368092144895     
  -1.96000000000000       -1.48000000000000       0.103592229681967     
  -1.96000000000000       -1.44000000000000       9.543915615499304E-002
  -1.96000000000000       -1.40000000000000       8.982106759306072E-002
  -1.96000000000000       -1.36000000000000       8.656831258453439E-002
  -1.96000000000000       -1.32000000000000       8.545617800216353E-002
  -1.96000000000000       -1.28000000000000       8.622670297964585E-002
  -1.96000000000000       -1.24000000000000       8.860614980889268E-002
  -1.96000000000000       -1.20000000000000       9.231870618560581E-002
  -1.96000000000000       -1.16000000000000       9.709694191675113E-002
  -1.96000000000000       -1.12000000000000       0.102689494741047     
  -1.96000000000000       -1.08000000000000       0.108866414227477     
  -1.96000000000000       -1.04000000000000       0.115422549731646     
  -1.96000000000000       -1.00000000000000       0.122179328029898     
  -1.96000000000000      -0.960000000000000       0.128985228441257     
  -1.96000000000000      -0.920000000000000       0.135715227911774     
  -1.96000000000000      -0.880000000000000       0.142269455599478     
  -1.96000000000000      -0.840000000000000       0.148571265885272     
  -1.96000000000000      -0.800000000000000       0.154564910370396     
  -1.96000000000000      -0.760000000000000       0.160212963228912     
  -1.96000000000000      -0.720000000000000       0.165493630188846     
  -1.96000000000000      -0.680000000000000       0.170398049342354     
  -1.96000000000000      -0.640000000000000       0.174927671858435     
  -1.96000000000000      -0.600000000000000       0.179091792415559     
  -1.96000000000000      -0.560000000000000       0.182905282710891     
  -1.96000000000000      -0.520000000000000       0.186386566661869     
  -1.96000000000000      -0.480000000000000       0.189555862819569     
  -1.96000000000000      -0.440000000000000       0.192433707985807     
  -1.96000000000000      -0.400000000000000       0.195039765992012     
  -1.96000000000000      -0.360000000000000       0.197391916982104     
  -1.96000000000000      -0.320000000000000       0.199505615268333     
  -1.96000000000000      -0.280000000000000       0.201393497822956     
  -1.96000000000000      -0.240000000000000       0.203065220654224     
  -1.96000000000000      -0.200000000000000       0.204527496616994     
  -1.96000000000000      -0.160000000000000       0.205784305550829     
  -1.96000000000000      -0.120000000000000       0.206837245946444     
  -1.96000000000000      -8.000000000000007E-002  0.207685996539040     
  -1.96000000000000      -4.000000000000004E-002  0.208328856239301     
  -1.96000000000000       0.000000000000000E+000  0.208763331563899     
  -1.96000000000000       4.000000000000004E-002  0.208986742141952     
  -1.96000000000000       8.000000000000007E-002  0.208996816876492     
  -1.96000000000000       0.120000000000000       0.208792255855171     
  -1.96000000000000       0.160000000000000       0.208373236056731     
  -1.96000000000000       0.200000000000000       0.207741842213664     
  -1.96000000000000       0.240000000000000       0.206902407791646     
  -1.96000000000000       0.280000000000000       0.205861754857167     
  -1.96000000000000       0.320000000000000       0.204629325550884     
  -1.96000000000000       0.360000000000000       0.203217201890216     
  -1.96000000000000       0.400000000000000       0.201640014614963     
  -1.96000000000000       0.440000000000000       0.199914745688924     
  -1.96000000000000       0.480000000000000       0.198060432803177     
  -1.96000000000000       0.520000000000000       0.196097787717259     
  -1.96000000000000       0.560000000000000       0.194048743447644     
  -1.96000000000000       0.600000000000000       0.191935948093159     
  -1.96000000000000       0.640000000000000       0.189782225398759     
  -1.96000000000000       0.680000000000000       0.187610023927081     
  -1.96000000000000       0.720000000000000       0.185440877855861     
  -1.96000000000000       0.760000000000000       0.183294902873181     
  -1.96000000000000       0.800000000000000       0.181190350326194     
  -1.96000000000000       0.840000000000000       0.179143241616968     
  -1.96000000000000       0.880000000000000       0.177167102755937     
  -1.96000000000000       0.920000000000000       0.175272815903685     
  -1.96000000000000       0.960000000000000       0.173468600580008     
  -1.96000000000000        1.00000000000000       0.171760131919835     
  -1.96000000000000        1.04000000000000       0.170150796833333     
  -1.96000000000000        1.08000000000000       0.168642081106754     
  -1.96000000000000        1.12000000000000       0.167234071286000     
  -1.96000000000000        1.16000000000000       0.165926044540863     
  -1.96000000000000        1.20000000000000       0.164717107539166     
  -1.96000000000000        1.24000000000000       0.163606831590977     
  -1.96000000000000        1.28000000000000       0.162595815878276     
  -1.96000000000000        1.32000000000000       0.161686093389546     
  -1.96000000000000        1.36000000000000       0.160881275156166     
  -1.96000000000000        1.40000000000000       0.160186307462769     
  -1.96000000000000        1.44000000000000       0.159606693801519     
  -1.96000000000000        1.48000000000000       0.159147008385021     
  -1.96000000000000        1.52000000000000       0.158808500948786     
  -1.96000000000000        1.56000000000000       0.158585563286587     
  -1.96000000000000        1.60000000000000       0.158460796394964     
  -1.96000000000000        1.64000000000000       0.158398383181214     
  -1.96000000000000        1.68000000000000       0.158335435337089     
  -1.96000000000000        1.72000000000000       0.158170944122335     
  -1.96000000000000        1.76000000000000       0.157751923363109     
  -1.96000000000000        1.80000000000000       0.156856288874503     
  -1.96000000000000        1.84000000000000       0.155171971688172     
  -1.96000000000000        1.88000000000000       0.152271712830744     
  -1.96000000000000        1.92000000000000       0.147582934879882     
  -1.96000000000000        1.96000000000000       0.140352030047606     
  -1.96000000000000        2.00000000000000       0.129602346029689     
  -1.92000000000000       -2.00000000000000       0.195465603510917     
  -1.92000000000000       -1.96000000000000       0.240501834917448     
  -1.92000000000000       -1.92000000000000       0.264001567805197     
  -1.92000000000000       -1.88000000000000       0.271635206524741     
  -1.92000000000000       -1.84000000000000       0.268002662910539     
  -1.92000000000000       -1.80000000000000       0.256788967327429     
  -1.92000000000000       -1.76000000000000       0.240902269154845     
  -1.92000000000000       -1.72000000000000       0.222595745800235     
  -1.92000000000000       -1.68000000000000       0.203574844606737     
  -1.92000000000000       -1.64000000000000       0.185091191119875     
  -1.92000000000000       -1.60000000000000       0.168024410026946     
  -1.92000000000000       -1.56000000000000       0.152953021606636     
  -1.92000000000000       -1.52000000000000       0.140215496648552     
  -1.92000000000000       -1.48000000000000       0.129962476448507     
  -1.92000000000000       -1.44000000000000       0.122201091578950     
  -1.92000000000000       -1.40000000000000       0.116832243600716     
  -1.92000000000000       -1.36000000000000       0.113681647645269     
  -1.92000000000000       -1.32000000000000       0.112525370782076     
  -1.92000000000000       -1.28000000000000       0.113110541216609     
  -1.92000000000000       -1.24000000000000       0.115171846566608     
  -1.92000000000000       -1.20000000000000       0.118444385661217     
  -1.92000000000000       -1.16000000000000       0.122673387424489     
  -1.92000000000000       -1.12000000000000       0.127621262366081     
  -1.92000000000000       -1.08000000000000       0.133072406931829     
  -1.92000000000000       -1.04000000000000       0.138836138390533     
  -1.92000000000000       -1.00000000000000       0.144748097974509     
  -1.92000000000000      -0.960000000000000       0.150670422575493     
  -1.92000000000000      -0.920000000000000       0.156490950348224     
  -1.92000000000000      -0.880000000000000       0.162121693016619     
  -1.92000000000000      -0.840000000000000       0.167496777435941     
  -1.92000000000000      -0.800000000000000       0.172570030963599     
  -1.92000000000000      -0.760000000000000       0.177312359355628     
  -1.92000000000000      -0.720000000000000       0.181709042160020     
  -1.92000000000000      -0.680000000000000       0.185757048846476     
  -1.92000000000000      -0.640000000000000       0.189462459119403     
  -1.92000000000000      -0.600000000000000       0.192838052931502     
  -1.92000000000000      -0.560000000000000       0.195901119573841     
  -1.92000000000000      -0.520000000000000       0.198671520789170     
  -1.92000000000000      -0.480000000000000       0.201170030063142     
  -1.92000000000000      -0.440000000000000       0.203416959017549     
  -1.92000000000000      -0.400000000000000       0.205431072085160     
  -1.92000000000000      -0.360000000000000       0.207228782311830     
  -1.92000000000000      -0.320000000000000       0.208823614132818     
  -1.92000000000000      -0.280000000000000       0.210225913231166     
  -1.92000000000000      -0.240000000000000       0.211442779031179     
  -1.92000000000000      -0.200000000000000       0.212478191933972     
  -1.92000000000000      -0.160000000000000       0.213333304989332     
  -1.92000000000000      -0.120000000000000       0.214006868243235     
  -1.92000000000000      -8.000000000000007E-002  0.214495753427892     
  -1.92000000000000      -4.000000000000004E-002  0.214795546895657     
  -1.92000000000000       0.000000000000000E+000  0.214901179664077     
  -1.92000000000000       4.000000000000004E-002  0.214807565061303     
  -1.92000000000000       8.000000000000007E-002  0.214510216663671     
  -1.92000000000000       0.120000000000000       0.214005821924848     
  -1.92000000000000       0.160000000000000       0.213292750033279     
  -1.92000000000000       0.200000000000000       0.212371476026117     
  -1.92000000000000       0.240000000000000       0.211244906958091     
  -1.92000000000000       0.280000000000000       0.209918599897202     
  -1.92000000000000       0.320000000000000       0.208400865620524     
  -1.92000000000000       0.360000000000000       0.206702756036978     
  -1.92000000000000       0.400000000000000       0.204837937494603     
  -1.92000000000000       0.440000000000000       0.202822456161827     
  -1.92000000000000       0.480000000000000       0.200674405530234     
  -1.92000000000000       0.520000000000000       0.198413509694887     
  -1.92000000000000       0.560000000000000       0.196060639351852     
  -1.92000000000000       0.600000000000000       0.193637280335759     
  -1.92000000000000       0.640000000000000       0.191164976927631     
  -1.92000000000000       0.680000000000000       0.188664774019247     
  -1.92000000000000       0.720000000000000       0.186156683449595     
  -1.92000000000000       0.760000000000000       0.183659200356053     
  -1.92000000000000       0.800000000000000       0.181188895132306     
  -1.92000000000000       0.840000000000000       0.178760105481285     
  -1.92000000000000       0.880000000000000       0.176384751019014     
  -1.92000000000000       0.920000000000000       0.174072289848920     
  -1.92000000000000       0.960000000000000       0.171829832410160     
  -1.92000000000000        1.00000000000000       0.169662422632713     
  -1.92000000000000        1.04000000000000       0.167573489930589     
  -1.92000000000000        1.08000000000000       0.165565467757368     
  -1.92000000000000        1.12000000000000       0.163640565259666     
  -1.92000000000000        1.16000000000000       0.161801667918813     
  -1.92000000000000        1.20000000000000       0.160053330893379     
  -1.92000000000000        1.24000000000000       0.158402814989854     
  -1.92000000000000        1.28000000000000       0.156861099720267     
  -1.92000000000000        1.32000000000000       0.155443790678341     
  -1.92000000000000        1.36000000000000       0.154171819404564     
  -1.92000000000000        1.40000000000000       0.153071812939747     
  -1.92000000000000        1.44000000000000       0.152175987310745     
  -1.92000000000000        1.48000000000000       0.151521394175830     
  -1.92000000000000        1.52000000000000       0.151148322704934     
  -1.92000000000000        1.56000000000000       0.151097629406313     
  -1.92000000000000        1.60000000000000       0.151406736960845     
  -1.92000000000000        1.64000000000000       0.152104009112365     
  -1.92000000000000        1.68000000000000       0.153201172211855     
  -1.92000000000000        1.72000000000000       0.154683415049681     
  -1.92000000000000        1.76000000000000       0.156496757057632     
  -1.92000000000000        1.80000000000000       0.158532230745823     
  -1.92000000000000        1.84000000000000       0.160606377283649     
  -1.92000000000000        1.88000000000000       0.162437504362480     
  -1.92000000000000        1.92000000000000       0.163617102816294     
  -1.92000000000000        1.96000000000000       0.163575762848638     
  -1.92000000000000        2.00000000000000       0.161542872045349     
  -1.88000000000000       -2.00000000000000       0.207527302561912     
  -1.88000000000000       -1.96000000000000       0.249966072307274     
  -1.88000000000000       -1.92000000000000       0.271986529656147     
  -1.88000000000000       -1.88000000000000       0.279014905919339     
  -1.88000000000000       -1.84000000000000       0.275442895870435     
  -1.88000000000000       -1.80000000000000       0.264779418311300     
  -1.88000000000000       -1.76000000000000       0.249785065667378     
  -1.88000000000000       -1.72000000000000       0.232590745629014     
  -1.88000000000000       -1.68000000000000       0.214801923652947     
  -1.88000000000000       -1.64000000000000       0.197589784754089     
  -1.88000000000000       -1.60000000000000       0.181770546375802     
  -1.88000000000000       -1.56000000000000       0.167874071152087     
  -1.88000000000000       -1.52000000000000       0.156202848991546     
  -1.88000000000000       -1.48000000000000       0.146882342045560     
  -1.88000000000000       -1.44000000000000       0.139903613696181     
  -1.88000000000000       -1.40000000000000       0.135159093637256     
  -1.88000000000000       -1.36000000000000       0.132472265350162     
  -1.88000000000000       -1.32000000000000       0.131621999717238     
  -1.88000000000000       -1.28000000000000       0.132362199096720     
  -1.88000000000000       -1.24000000000000       0.134437359826595     
  -1.88000000000000       -1.20000000000000       0.137594607756537     
  -1.88000000000000       -1.16000000000000       0.141592710950775     
  -1.88000000000000       -1.12000000000000       0.146208526085684     
  -1.88000000000000       -1.08000000000000       0.151241290207820     
  -1.88000000000000       -1.04000000000000       0.156515127346348     
  -1.88000000000000       -1.00000000000000       0.161880099912292     
  -1.88000000000000      -0.960000000000000       0.167212097790648     
  -1.88000000000000      -0.920000000000000       0.172411823464527     
  -1.88000000000000      -0.880000000000000       0.177403099327779     
  -1.88000000000000      -0.840000000000000       0.182130693468447     
  -1.88000000000000      -0.800000000000000       0.186557832564464     
  -1.88000000000000      -0.760000000000000       0.190663545049911     
  -1.88000000000000      -0.720000000000000       0.194439954309185     
  -1.88000000000000      -0.680000000000000       0.197889620262397     
  -1.88000000000000      -0.640000000000000       0.201023008242588     
  -1.88000000000000      -0.600000000000000       0.203856146458540     
  -1.88000000000000      -0.560000000000000       0.206408517510577     
  -1.88000000000000      -0.520000000000000       0.208701215305362     
  -1.88000000000000      -0.480000000000000       0.210755386223854     
  -1.88000000000000      -0.440000000000000       0.212590962458762     
  -1.88000000000000      -0.400000000000000       0.214225685978654     
  -1.88000000000000      -0.360000000000000       0.215674413519877     
  -1.88000000000000      -0.320000000000000       0.216948686279051     
  -1.88000000000000      -0.280000000000000       0.218056542502832     
  -1.88000000000000      -0.240000000000000       0.219002546872286     
  -1.88000000000000      -0.200000000000000       0.219788007381229     
  -1.88000000000000      -0.160000000000000       0.220411348235708     
  -1.88000000000000      -0.120000000000000       0.220868606080062     
  -1.88000000000000      -8.000000000000007E-002  0.221154016508209     
  -1.88000000000000      -4.000000000000004E-002  0.221260658271463     
  -1.88000000000000       0.000000000000000E+000  0.221181123770906     
  -1.88000000000000       4.000000000000004E-002  0.220908186247608     
  -1.88000000000000       8.000000000000007E-002  0.220435436482404     
  -1.88000000000000       0.120000000000000       0.219757864712912     
  -1.88000000000000       0.160000000000000       0.218872366793803     
  -1.88000000000000       0.200000000000000       0.217778157291228     
  -1.88000000000000       0.240000000000000       0.216477076138581     
  -1.88000000000000       0.280000000000000       0.214973779612886     
  -1.88000000000000       0.320000000000000       0.213275810643437     
  -1.88000000000000       0.360000000000000       0.211393547761775     
  -1.88000000000000       0.400000000000000       0.209340036268743     
  -1.88000000000000       0.440000000000000       0.207130709355220     
  -1.88000000000000       0.480000000000000       0.204783010892392     
  -1.88000000000000       0.520000000000000       0.202315935329775     
  -1.88000000000000       0.560000000000000       0.199749503529212     
  -1.88000000000000       0.600000000000000       0.197104196345180     
  -1.88000000000000       0.640000000000000       0.194400370260575     
  -1.88000000000000       0.680000000000000       0.191657681327219     
  -1.88000000000000       0.720000000000000       0.188894544966165     
  -1.88000000000000       0.760000000000000       0.186127659779059     
  -1.88000000000000       0.800000000000000       0.183371623332837     
  -1.88000000000000       0.840000000000000       0.180638666830476     
  -1.88000000000000       0.880000000000000       0.177938533594909     
  -1.88000000000000       0.920000000000000       0.175278523296058     
  -1.88000000000000       0.960000000000000       0.172663719766882     
  -1.88000000000000        1.00000000000000       0.170097415007766     
  -1.88000000000000        1.04000000000000       0.167581735494206     
  -1.88000000000000        1.08000000000000       0.165118469104948     
  -1.88000000000000        1.12000000000000       0.162710081801208     
  -1.88000000000000        1.16000000000000       0.160360902536782     
  -1.88000000000000        1.20000000000000       0.158078442688280     
  -1.88000000000000        1.24000000000000       0.155874802489043     
  -1.88000000000000        1.28000000000000       0.153768101453938     
  -1.88000000000000        1.32000000000000       0.151783852519734     
  -1.88000000000000        1.36000000000000       0.149956180521872     
  -1.88000000000000        1.40000000000000       0.148328764607311     
  -1.88000000000000        1.44000000000000       0.146955361169719     
  -1.88000000000000        1.48000000000000       0.145899738811906     
  -1.88000000000000        1.52000000000000       0.145234829615529     
  -1.88000000000000        1.56000000000000       0.145040871554524     
  -1.88000000000000        1.60000000000000       0.145402285150795     
  -1.88000000000000        1.64000000000000       0.146402993362949     
  -1.88000000000000        1.68000000000000       0.148119857146008     
  -1.88000000000000        1.72000000000000       0.150613860046417     
  -1.88000000000000        1.76000000000000       0.153918633526968     
  -1.88000000000000        1.80000000000000       0.158025870374916     
  -1.88000000000000        1.84000000000000       0.162867126458269     
  -1.88000000000000        1.88000000000000       0.168291461184232     
  -1.88000000000000        1.92000000000000       0.174038314205187     
  -1.88000000000000        1.96000000000000       0.179704960134989     
  -1.88000000000000        2.00000000000000       0.184707824207578     
  -1.84000000000000       -2.00000000000000       0.206606356743439     
  -1.84000000000000       -1.96000000000000       0.247294531534756     
  -1.84000000000000       -1.92000000000000       0.268588942734139     
  -1.84000000000000       -1.88000000000000       0.275683416484740     
  -1.84000000000000       -1.84000000000000       0.272772018824477     