 variables= "x","y","fPC"
 zone i=         101  j=         101  datapacking=point
  -2.00000000000000       -2.00000000000000        3608.99999999530     
  -2.00000000000000       -1.96000000000000        3561.15999999924     
  -2.00000000000000       -1.92000000000000        3513.64000000135     
  -2.00000000000000       -1.88000000000000        3466.44000000213     
  -2.00000000000000       -1.84000000000000        3419.56000000199     
  -2.00000000000000       -1.80000000000000        3373.00000000127     
  -2.00000000000000       -1.76000000000000        3326.76000000022     
  -2.00000000000000       -1.72000000000000        3280.83999999904     
  -2.00000000000000       -1.68000000000000        3235.23999999789     
  -2.00000000000000       -1.64000000000000        3189.95999999686     
  -2.00000000000000       -1.60000000000000        3144.99999999603     
  -2.00000000000000       -1.56000000000000        3100.35999999543     
  -2.00000000000000       -1.52000000000000        3056.03999999508     
  -2.00000000000000       -1.48000000000000        3012.03999999497     
  -2.00000000000000       -1.44000000000000        2968.35999999507     
  -2.00000000000000       -1.40000000000000        2924.99999999537     
  -2.00000000000000       -1.36000000000000        2881.95999999582     
  -2.00000000000000       -1.32000000000000        2839.23999999639     
  -2.00000000000000       -1.28000000000000        2796.83999999704     
  -2.00000000000000       -1.24000000000000        2754.75999999773     
  -2.00000000000000       -1.20000000000000        2712.99999999842     
  -2.00000000000000       -1.16000000000000        2671.55999999909     
  -2.00000000000000       -1.12000000000000        2630.43999999971     
  -2.00000000000000       -1.08000000000000        2589.64000000026     
  -2.00000000000000       -1.04000000000000        2549.16000000072     
  -2.00000000000000       -1.00000000000000        2509.00000000109     
  -2.00000000000000      -0.960000000000000        2469.16000000134     
  -2.00000000000000      -0.920000000000000        2429.64000000150     
  -2.00000000000000      -0.880000000000000        2390.44000000155     
  -2.00000000000000      -0.840000000000000        2351.56000000150     
  -2.00000000000000      -0.800000000000000        2313.00000000137     
  -2.00000000000000      -0.760000000000000        2274.76000000116     
  -2.00000000000000      -0.720000000000000        2236.84000000090     
  -2.00000000000000      -0.680000000000000        2199.24000000058     
  -2.00000000000000      -0.640000000000000        2161.96000000022     
  -2.00000000000000      -0.600000000000000        2124.99999999985     
  -2.00000000000000      -0.560000000000000        2088.35999999947     
  -2.00000000000000      -0.520000000000000        2052.03999999910     
  -2.00000000000000      -0.480000000000000        2016.03999999873     
  -2.00000000000000      -0.440000000000000        1980.35999999840     
  -2.00000000000000      -0.400000000000000        1944.99999999809     
  -2.00000000000000      -0.360000000000000        1909.95999999782     
  -2.00000000000000      -0.320000000000000        1875.23999999758     
  -2.00000000000000      -0.280000000000000        1840.83999999739     
  -2.00000000000000      -0.240000000000000        1806.75999999723     
  -2.00000000000000      -0.200000000000000        1772.99999999711     
  -2.00000000000000      -0.160000000000000        1739.55999999702     
  -2.00000000000000      -0.120000000000000        1706.43999999696     
  -2.00000000000000      -8.000000000000007E-002   1673.63999999691     
  -2.00000000000000      -4.000000000000004E-002   1641.15999999689     
  -2.00000000000000       0.000000000000000E+000   1608.99999999687     
  -2.00000000000000       4.000000000000004E-002   1577.15999999685     
  -2.00000000000000       8.000000000000007E-002   1545.63999999683     
  -2.00000000000000       0.120000000000000        1514.43999999680     
  -2.00000000000000       0.160000000000000        1483.55999999675     
  -2.00000000000000       0.200000000000000        1452.99999999668     
  -2.00000000000000       0.240000000000000        1422.75999999660     
  -2.00000000000000       0.280000000000000        1392.83999999649     
  -2.00000000000000       0.320000000000000        1363.23999999635     
  -2.00000000000000       0.360000000000000        1333.95999999620     
  -2.00000000000000       0.400000000000000        1304.99999999602     
  -2.00000000000000       0.440000000000000        1276.35999999582     
  -2.00000000000000       0.480000000000000        1248.03999999561     
  -2.00000000000000       0.520000000000000        1220.03999999539     
  -2.00000000000000       0.560000000000000        1192.35999999517     
  -2.00000000000000       0.600000000000000        1164.99999999494     
  -2.00000000000000       0.640000000000000        1137.95999999471     
  -2.00000000000000       0.680000000000000        1111.23999999450     
  -2.00000000000000       0.720000000000000        1084.83999999429     
  -2.00000000000000       0.760000000000000        1058.75999999411     
  -2.00000000000000       0.800000000000000        1032.99999999394     
  -2.00000000000000       0.840000000000000        1007.55999999380     
  -2.00000000000000       0.880000000000000        982.439999993679     
  -2.00000000000000       0.920000000000000        957.639999993587     
  -2.00000000000000       0.960000000000000        933.159999993524     
  -2.00000000000000        1.00000000000000        908.999999993490     
  -2.00000000000000        1.04000000000000        885.159999993490     
  -2.00000000000000        1.08000000000000        861.639999993524     
  -2.00000000000000        1.12000000000000        838.439999993599     
  -2.00000000000000        1.16000000000000        815.559999993720     
  -2.00000000000000        1.20000000000000        792.999999993896     
  -2.00000000000000        1.24000000000000        770.759999994136     
  -2.00000000000000        1.28000000000000        748.839999994455     
  -2.00000000000000        1.32000000000000        727.239999994869     
  -2.00000000000000        1.36000000000000        705.959999995392     
  -2.00000000000000        1.40000000000000        684.999999996046     
  -2.00000000000000        1.44000000000000        664.359999996846     
  -2.00000000000000        1.48000000000000        644.039999997809     
  -2.00000000000000        1.52000000000000        624.039999998941     
  -2.00000000000000        1.56000000000000        604.360000000239     
  -2.00000000000000        1.60000000000000        585.000000001683     
  -2.00000000000000        1.64000000000000        565.960000003228     
  -2.00000000000000        1.68000000000000        547.240000004793     
  -2.00000000000000        1.72000000000000        528.840000006251     
  -2.00000000000000        1.76000000000000        510.760000007413     
  -2.00000000000000        1.80000000000000        493.000000008006     
  -2.00000000000000        1.84000000000000        475.560000007658     
  -2.00000000000000        1.88000000000000        458.440000005863     
  -2.00000000000000        1.92000000000000        441.640000001955     
  -2.00000000000000        1.96000000000000        425.159999995071     
  -2.00000000000000        2.00000000000000        408.999999984100     
  -1.96000000000000       -2.00000000000000        3421.19065599581     
  -1.96000000000000       -1.96000000000000        3374.61785599951     
  -1.96000000000000       -1.92000000000000        3328.36505600152     
  -1.96000000000000       -1.88000000000000        3282.43225600232     
  -1.96000000000000       -1.84000000000000        3236.81945600227     
  -1.96000000000000       -1.80000000000000        3191.52665600168     
  -1.96000000000000       -1.76000000000000        3146.55385600079     
  -1.96000000000000       -1.72000000000000        3101.90105599978     
  -1.96000000000000       -1.68000000000000        3057.56825599879     
  -1.96000000000000       -1.64000000000000        3013.55545599792     
  -1.96000000000000       -1.60000000000000        2969.86265599721     
  -1.96000000000000       -1.56000000000000        2926.48985599672     
  -1.96000000000000       -1.52000000000000        2883.43705599644     
  -1.96000000000000       -1.48000000000000        2840.70425599637     
  -1.96000000000000       -1.44000000000000        2798.29145599649     
  -1.96000000000000       -1.40000000000000        2756.19865599678     
  -1.96000000000000       -1.36000000000000        2714.42585599721     
  -1.96000000000000       -1.32000000000000        2672.97305599772     
  -1.96000000000000       -1.28000000000000        2631.84025599831     
  -1.96000000000000       -1.24000000000000        2591.02745599892     
  -1.96000000000000       -1.20000000000000        2550.53465599952     
  -1.96000000000000       -1.16000000000000        2510.36185600010     
  -1.96000000000000       -1.12000000000000        2470.50905600062     
  -1.96000000000000       -1.08000000000000        2430.97625600107     
  -1.96000000000000       -1.04000000000000        2391.76345600144     
  -1.96000000000000       -1.00000000000000        2352.87065600171     
  -1.96000000000000      -0.960000000000000        2314.29785600188     
  -1.96000000000000      -0.920000000000000        2276.04505600196     
  -1.96000000000000      -0.880000000000000        2238.11225600195     
  -1.96000000000000      -0.840000000000000        2200.49945600185     
  -1.96000000000000      -0.800000000000000        2163.20665600168     
  -1.96000000000000      -0.760000000000000        2126.23385600144     
  -1.96000000000000      -0.720000000000000        2089.58105600116     
  -1.96000000000000      -0.680000000000000        2053.24825600084     
  -1.96000000000000      -0.640000000000000        2017.23545600049     
  -1.96000000000000      -0.600000000000000        1981.54265600014     
  -1.96000000000000      -0.560000000000000        1946.16985599979     
  -1.96000000000000      -0.520000000000000        1911.11705599945     
  -1.96000000000000      -0.480000000000000        1876.38425599913     
  -1.96000000000000      -0.440000000000000        1841.97145599885     
  -1.96000000000000      -0.400000000000000        1807.87865599860     
  -1.96000000000000      -0.360000000000000        1774.10585599839     
  -1.96000000000000      -0.320000000000000        1740.65305599822     
  -1.96000000000000      -0.280000000000000        1707.52025599809     
  -1.96000000000000      -0.240000000000000        1674.70745599800     
  -1.96000000000000      -0.200000000000000        1642.21465599795     
  -1.96000000000000      -0.160000000000000        1610.04185599792     
  -1.96000000000000      -0.120000000000000        1578.18905599793     
  -1.96000000000000      -8.000000000000007E-002   1546.65625599795     
  -1.96000000000000      -4.000000000000004E-002   1515.44345599798     
  -1.96000000000000       0.000000000000000E+000   1484.55065599801     
  -1.96000000000000       4.000000000000004E-002   1453.97785599805     
  -1.96000000000000       8.000000000000007E-002   1423.72505599807     
  -1.96000000000000       0.120000000000000        1393.79225599808     
  -1.96000000000000       0.160000000000000        1364.17945599807     
  -1.96000000000000       0.200000000000000        1334.88665599804     
  -1.96000000000000       0.240000000000000        1305.91385599799     
  -1.96000000000000       0.280000000000000        1277.26105599791     
  -1.96000000000000       0.320000000000000        1248.92825599780     
  -1.96000000000000       0.360000000000000        1220.91545599767     
  -1.96000000000000       0.400000000000000        1193.22265599752     
  -1.96000000000000       0.440000000000000        1165.84985599735     
  -1.96000000000000       0.480000000000000        1138.79705599716     
  -1.96000000000000       0.520000000000000        1112.06425599697     
  -1.96000000000000       0.560000000000000        1085.65145599676     
  -1.96000000000000       0.600000000000000        1059.55865599656     
  -1.96000000000000       0.640000000000000        1033.78585599636     
  -1.96000000000000       0.680000000000000        1008.33305599617     
  -1.96000000000000       0.720000000000000        983.200255995997     
  -1.96000000000000       0.760000000000000        958.387455995836     
  -1.96000000000000       0.800000000000000        933.894655995695     
  -1.96000000000000       0.840000000000000        909.721855995572     
  -1.96000000000000       0.880000000000000        885.869055995472     
  -1.96000000000000       0.920000000000000        862.336255995391     
  -1.96000000000000       0.960000000000000        839.123455995331     
  -1.96000000000000        1.00000000000000        816.230655995291     
  -1.96000000000000        1.04000000000000        793.657855995272     
  -1.96000000000000        1.08000000000000        771.405055995274     
  -1.96000000000000        1.12000000000000        749.472255995298     
  -1.96000000000000        1.16000000000000        727.859455995349     
  -1.96000000000000        1.20000000000000        706.566655995432     
  -1.96000000000000        1.24000000000000        685.593855995557     
  -1.96000000000000        1.28000000000000        664.941055995734     
  -1.96000000000000        1.32000000000000        644.608255995978     
  -1.96000000000000        1.36000000000000        624.595455996305     
  -1.96000000000000        1.40000000000000        604.902655996736     
  -1.96000000000000        1.44000000000000        585.529855997289     
  -1.96000000000000        1.48000000000000        566.477055997984     
  -1.96000000000000        1.52000000000000        547.744255998834     
  -1.96000000000000        1.56000000000000        529.331455999843     
  -1.96000000000000        1.60000000000000        511.238656001003     
  -1.96000000000000        1.64000000000000        493.465856002283     
  -1.96000000000000        1.68000000000000        476.013056003622     
  -1.96000000000000        1.72000000000000        458.880256004914     
  -1.96000000000000        1.76000000000000        442.067456005999     
  -1.96000000000000        1.80000000000000        425.574656006640     
  -1.96000000000000        1.84000000000000        409.401856006506     
  -1.96000000000000        1.88000000000000        393.549056005141     
  -1.96000000000000        1.92000000000000        378.016256001939     
  -1.96000000000000        1.96000000000000        362.803455996103     
  -1.96000000000000        2.00000000000000        347.910655986606     
  -1.92000000000000       -2.00000000000000        3242.04089599658     
  -1.92000000000000       -1.96000000000000        3196.70969600002     
  -1.92000000000000       -1.92000000000000        3151.69849600193     
  -1.92000000000000       -1.88000000000000        3107.00729600271     
  -1.92000000000000       -1.84000000000000        3062.63609600272     
  -1.92000000000000       -1.80000000000000        3018.58489600224     
  -1.92000000000000       -1.76000000000000        2974.85369600148     
  -1.92000000000000       -1.72000000000000        2931.44249600062     
  -1.92000000000000       -1.68000000000000        2888.35129599977     
  -1.92000000000000       -1.64000000000000        2845.58009599902     
  -1.92000000000000       -1.60000000000000        2803.12889599842     
  -1.92000000000000       -1.56000000000000        2760.99769599800     
  -1.92000000000000       -1.52000000000000        2719.18649599777     
  -1.92000000000000       -1.48000000000000        2677.69529599773     
  -1.92000000000000       -1.44000000000000        2636.52409599786     
  -1.92000000000000       -1.40000000000000        2595.67289599813     
  -1.92000000000000       -1.36000000000000        2555.14169599851     
  -1.92000000000000       -1.32000000000000        2514.93049599898     
  -1.92000000000000       -1.28000000000000        2475.03929599949     
  -1.92000000000000       -1.24000000000000        2435.46809600001     
  -1.92000000000000       -1.20000000000000        2396.21689600052     
  -1.92000000000000       -1.16000000000000        2357.28569600100     
  -1.92000000000000       -1.12000000000000        2318.67449600142     
  -1.92000000000000       -1.08000000000000        2280.38329600177     
  -1.92000000000000       -1.04000000000000        2242.41209600204     
  -1.92000000000000       -1.00000000000000        2204.76089600222     
  -1.92000000000000      -0.960000000000000        2167.42969600231     
  -1.92000000000000      -0.920000000000000        2130.41849600232     
  -1.92000000000000      -0.880000000000000        2093.72729600224     
  -1.92000000000000      -0.840000000000000        2057.35609600209     
  -1.92000000000000      -0.800000000000000        2021.30489600188     
  -1.92000000000000      -0.760000000000000        1985.57369600161     
  -1.92000000000000      -0.720000000000000        1950.16249600131     
  -1.92000000000000      -0.680000000000000        1915.07129600098     
  -1.92000000000000      -0.640000000000000        1880.30009600064     
  -1.92000000000000      -0.600000000000000        1845.84889600030     
  -1.92000000000000      -0.560000000000000        1811.71769599998     
  -1.92000000000000      -0.520000000000000        1777.90649599967     
  -1.92000000000000      -0.480000000000000        1744.41529599940     
  -1.92000000000000      -0.440000000000000        1711.24409599916     
  -1.92000000000000      -0.400000000000000        1678.39289599896     
  -1.92000000000000      -0.360000000000000        1645.86169599881     
  -1.92000000000000      -0.320000000000000        1613.65049599870     
  -1.92000000000000      -0.280000000000000        1581.75929599863     
  -1.92000000000000      -0.240000000000000        1550.18809599860     
  -1.92000000000000      -0.200000000000000        1518.93689599861     
  -1.92000000000000      -0.160000000000000        1488.00569599864     
  -1.92000000000000      -0.120000000000000        1457.39449599870     
  -1.92000000000000      -8.000000000000007E-002   1427.10329599877     
  -1.92000000000000      -4.000000000000004E-002   1397.13209599885     
  -1.92000000000000       0.000000000000000E+000   1367.48089599893     
  -1.92000000000000       4.000000000000004E-002   1338.14969599901     
  -1.92000000000000       8.000000000000007E-002   1309.13849599907     
  -1.92000000000000       0.120000000000000        1280.44729599911     
  -1.92000000000000       0.160000000000000        1252.07609599913     
  -1.92000000000000       0.200000000000000        1224.02489599913     
  -1.92000000000000       0.240000000000000        1196.29369599910     
  -1.92000000000000       0.280000000000000        1168.88249599904     
  -1.92000000000000       0.320000000000000        1141.79129599895     
  -1.92000000000000       0.360000000000000        1115.02009599883     
  -1.92000000000000       0.400000000000000        1088.56889599870     
  -1.92000000000000       0.440000000000000        1062.43769599854     
  -1.92000000000000       0.480000000000000        1036.62649599837     
  -1.92000000000000       0.520000000000000        1011.13529599819     
  -1.92000000000000       0.560000000000000        985.964095998006     
  -1.92000000000000       0.600000000000000        961.112895997823     
  -1.92000000000000       0.640000000000000        936.581695997646     
  -1.92000000000000       0.680000000000000        912.370495997480     
  -1.92000000000000       0.720000000000000        888.479295997327     
  -1.92000000000000       0.760000000000000        864.908095997192     
  -1.92000000000000       0.800000000000000        841.656895997075     
  -1.92000000000000       0.840000000000000        818.725695996976     
  -1.92000000000000       0.880000000000000        796.114495996897     
  -1.92000000000000       0.920000000000000        773.823295996834     
  -1.92000000000000       0.960000000000000        751.852095996786     
  -1.92000000000000        1.00000000000000        730.200895996751     
  -1.92000000000000        1.04000000000000        708.869695996726     
  -1.92000000000000        1.08000000000000        687.858495996709     
  -1.92000000000000        1.12000000000000        667.167295996700     
  -1.92000000000000        1.16000000000000        646.796095996701     
  -1.92000000000000        1.20000000000000        626.744895996714     
  -1.92000000000000        1.24000000000000        607.013695996746     
  -1.92000000000000        1.28000000000000        587.602495996807     
  -1.92000000000000        1.32000000000000        568.511295996910     
  -1.92000000000000        1.36000000000000        549.740095997071     
  -1.92000000000000        1.40000000000000        531.288895997308     
  -1.92000000000000        1.44000000000000        513.157695997645     
  -1.92000000000000        1.48000000000000        495.346495998102     
  -1.92000000000000        1.52000000000000        477.855295998697     
  -1.92000000000000        1.56000000000000        460.684095999442     
  -1.92000000000000        1.60000000000000        443.832896000337     
  -1.92000000000000        1.64000000000000        427.301696001365     
  -1.92000000000000        1.68000000000000        411.090496002481     
  -1.92000000000000        1.72000000000000        395.199296003599     
  -1.92000000000000        1.76000000000000        379.628096004587     
  -1.92000000000000        1.80000000000000        364.376896005237     
  -1.92000000000000        1.84000000000000        349.445696005256     
  -1.92000000000000        1.88000000000000        334.834496004235     
  -1.92000000000000        1.92000000000000        320.543296001621     
  -1.92000000000000        1.96000000000000        306.572095996681     
  -1.92000000000000        2.00000000000000        292.920895988461     
  -1.88000000000000       -2.00000000000000        3071.25273599744     
  -1.88000000000000       -1.96000000000000        3027.13753600062     
  -1.88000000000000       -1.92000000000000        2983.34233600240     
  -1.88000000000000       -1.88000000000000        2939.86713600316     
  -1.88000000000000       -1.84000000000000        2896.71193600322     
  -1.88000000000000       -1.80000000000000        2853.87673600282     
  -1.88000000000000       -1.76000000000000        2811.36153600218     
  -1.88000000000000       -1.72000000000000        2769.16633600143     
  -1.88000000000000       -1.68000000000000        2727.29113600069     
  -1.88000000000000       -1.64000000000000        2685.73593600004     
  -1.88000000000000       -1.60000000000000        2644.50073599952     
  -1.88000000000000       -1.56000000000000        2603.58553599917     
  -1.88000000000000       -1.52000000000000        2562.99033599899     
  -1.88000000000000       -1.48000000000000        2522.71513599897     
  -1.88000000000000       -1.44000000000000        2482.75993599909     
  -1.88000000000000       -1.40000000000000        2443.12473599933     
  -1.88000000000000       -1.36000000000000        2403.80953599967     
  -1.88000000000000       -1.32000000000000        2364.81433600006     
  -1.88000000000000       -1.28000000000000        2326.13913600050     
  -1.88000000000000       -1.24000000000000        2287.78393600093     
  -1.88000000000000       -1.20000000000000        2249.74873600135     
  -1.88000000000000       -1.16000000000000        2212.03353600173     
  -1.88000000000000       -1.12000000000000        2174.63833600205     
  -1.88000000000000       -1.08000000000000        2137.56313600231     
  -1.88000000000000       -1.04000000000000        2100.80793600248     
  -1.88000000000000       -1.00000000000000        2064.37273600258     
  -1.88000000000000      -0.960000000000000        2028.25753600259     
  -1.88000000000000      -0.920000000000000        1992.46233600252     
  -1.88000000000000      -0.880000000000000        1956.98713600238     
  -1.88000000000000      -0.840000000000000        1921.83193600218     
  -1.88000000000000      -0.800000000000000        1886.99673600193     
  -1.88000000000000      -0.760000000000000        1852.48153600163     
  -1.88000000000000      -0.720000000000000        1818.28633600132     
  -1.88000000000000      -0.680000000000000        1784.41113600098     
  -1.88000000000000      -0.640000000000000        1750.85593600065     
  -1.88000000000000      -0.600000000000000        1717.62073600033     
  -1.88000000000000      -0.560000000000000        1684.70553600003     
  -1.88000000000000      -0.520000000000000        1652.11033599976     
  -1.88000000000000      -0.480000000000000        1619.83513599952     
  -1.88000000000000      -0.440000000000000        1587.87993599933     
  -1.88000000000000      -0.400000000000000        1556.24473599918     
  -1.88000000000000      -0.360000000000000        1524.92953599908     
  -1.88000000000000      -0.320000000000000        1493.93433599902     
  -1.88000000000000      -0.280000000000000        1463.25913599901     
  -1.88000000000000      -0.240000000000000        1432.90393599903     
  -1.88000000000000      -0.200000000000000        1402.86873599909     
  -1.88000000000000      -0.160000000000000        1373.15353599918     
  -1.88000000000000      -0.120000000000000        1343.75833599928     
  -1.88000000000000      -8.000000000000007E-002   1314.68313599940     
  -1.88000000000000      -4.000000000000004E-002   1285.92793599952     
  -1.88000000000000       0.000000000000000E+000   1257.49273599964     
  -1.88000000000000       4.000000000000004E-002   1229.37753599975     
  -1.88000000000000       8.000000000000007E-002   1201.58233599984     
  -1.88000000000000       0.120000000000000        1174.10713599991     
  -1.88000000000000       0.160000000000000        1146.95193599995     
  -1.88000000000000       0.200000000000000        1120.11673599996     
  -1.88000000000000       0.240000000000000        1093.60153599994     
  -1.88000000000000       0.280000000000000        1067.40633599989     
  -1.88000000000000       0.320000000000000        1041.53113599982     
  -1.88000000000000       0.360000000000000        1015.97593599971     
  -1.88000000000000       0.400000000000000        990.740735999581     
  -1.88000000000000       0.440000000000000        965.825535999433     
  -1.88000000000000       0.480000000000000        941.230335999272     
  -1.88000000000000       0.520000000000000        916.955135999103     
  -1.88000000000000       0.560000000000000        892.999935998931     
  -1.88000000000000       0.600000000000000        869.364735998763     
  -1.88000000000000       0.640000000000000        846.049535998603     
  -1.88000000000000       0.680000000000000        823.054335998456     
  -1.88000000000000       0.720000000000000        800.379135998327     
  -1.88000000000000       0.760000000000000        778.023935998215     
  -1.88000000000000       0.800000000000000        755.988735998122     
  -1.88000000000000       0.840000000000000        734.273535998050     
  -1.88000000000000       0.880000000000000        712.878335997995     
  -1.88000000000000       0.920000000000000        691.803135997954     
  -1.88000000000000       0.960000000000000        671.047935997926     
  -1.88000000000000        1.00000000000000        650.612735997904     
  -1.88000000000000        1.04000000000000        630.497535997884     
  -1.88000000000000        1.08000000000000        610.702335997864     
  -1.88000000000000        1.12000000000000        591.227135997838     
  -1.88000000000000        1.16000000000000        572.071935997807     
  -1.88000000000000        1.20000000000000        553.236735997771     
  -1.88000000000000        1.24000000000000        534.721535997735     
  -1.88000000000000        1.28000000000000        516.526335997706     
  -1.88000000000000        1.32000000000000        498.651135997694     
  -1.88000000000000        1.36000000000000        481.095935997717     
  -1.88000000000000        1.40000000000000        463.860735997793     
  -1.88000000000000        1.44000000000000        446.945535997944     
  -1.88000000000000        1.48000000000000        430.350335998192     
  -1.88000000000000        1.52000000000000        414.075135998562     
  -1.88000000000000        1.56000000000000        398.119935999068     
  -1.88000000000000        1.60000000000000        382.484735999722     
  -1.88000000000000        1.64000000000000        367.169536000515     
  -1.88000000000000        1.68000000000000        352.174336001418     
  -1.88000000000000        1.72000000000000        337.499136002363     
  -1.88000000000000        1.76000000000000        323.143936003240     
  -1.88000000000000        1.80000000000000        309.108736003872     
  -1.88000000000000        1.84000000000000        295.393536003997     
  -1.88000000000000        1.88000000000000        281.998336003250     
  -1.88000000000000        1.92000000000000        268.923136001126     
  -1.88000000000000        1.96000000000000        256.167935996951     
  -1.88000000000000        2.00000000000000        243.732735989838     
  -1.84000000000000       -2.00000000000000        2908.53433599829     
  -1.84000000000000       -1.96000000000000        2865.60953600120     
  -1.84000000000000       -1.92000000000000        2823.00473600285     
  -1.84000000000000       -1.88000000000000        2780.71993600357     
  -1.84000000000000       -1.84000000000000        2738.75513600365     