 variables= "x","y","f"
 zone i=         156  datapacking=point
  0.000000000000000E+000  0.000000000000000E+000   1.00000000000000     
  -1.81037037625530       -1.28686068836055        2091.18307989328     
 -0.713095372800480       0.459683761623352        3.17304719254315     
 -0.266657756526399        1.17770912289195        124.061389551894     
   1.19217721723194        1.75722868339154        11.3226459795313     
 -0.168418822635190       -1.16660904033300        144.161474309047     
  -1.52424292685068      -0.652686237167027        892.031031548655     
  0.230946701886943        1.57513943394771        232.179896745930     
  0.793945930154129       -1.90426064532700        642.467641593505     
   1.66743013907491      -0.181393198668781        877.621906296146     
 -0.956197995053810       0.779055428702991        5.65621509325870     
   1.54393377504926      -0.233591399788787        685.333781037226     
  -1.99011014473482        1.94459135600076        415.345002331442     
  -1.99801462162233        1.26841929786541        750.811281822396     
  -1.99845248717707       0.687845912198451        1101.93212180992     
   1.99172800757350        1.99336948215205        390.497552110587     
  -1.99314907448495       6.948293425396601E-002   1532.42497324666     
   1.98505071766834        1.42510687970811        633.653529542379     
   1.98686181635673       -1.97580155740521        3509.66604555279     
  -1.50167312185043        1.62716291016132        45.6790927831851     
  -1.27320958021267       -1.94218776197853        1274.84282105590     
  -1.33215645929733       -1.46471267441005        1054.78006773059     
  -1.98804029273693       -1.99052411869511        3540.64923393071     
   1.72751416532373       -1.57234161290598        2076.83228677460     
  -1.13596901048700        1.92999429919419        45.4671766353213     
 -0.852692869136997       -1.69204516813070        588.651610354213     
  -1.05501423038050        1.44884534398785        15.4985972319972     
   1.36735417690377      -0.673615569115085        646.958711572817     
  -1.36127016006750        1.06172931158492        68.1954605607486     
  7.731418830831593E-002  0.822976585780343        67.6001023848552     
   1.99561991194990       -1.05977019010419        2543.43894911536     
   1.98466231653478      -0.669544581587217        2124.73142971682     
   1.53075294962577       -1.97248998024246        1862.80366346199     
   1.52293536111085        1.07338632440891        155.511552482237     
   1.11352529911952        1.02208265336364        4.75900898383331     
  -1.60673184146003       0.255202076411993        548.001830039427     
   1.99756496564146       2.095519107288579E-002   1576.53780049070     
  0.932091313491613       0.681830709369204        3.50014689654252     
  -1.99907451819940      -0.838857635370687        2346.86834846721     
 -0.485646586664807        1.99983938714183        313.372081782881     
   1.53416213633332        1.54245084189831        66.0902980400585     
   1.29811092659444       -1.61894245641053        1091.75322433236     
  0.660626251104195        1.99837651315980        244.083789072264     
  -1.99425765899433       -1.59267981689884        3111.16976358641     
  0.311692621816919        1.99775514625317        361.702888578432     
   1.66139884389833        1.97962707936485        61.3740568577857     
 -0.902030181653273      -0.722966279281207        239.739274249649     
  -1.85447442502087      -0.511845599344495        1569.12569306257     
  -1.09157315302863      -0.463682166878003        278.348055000283     
  -1.64545446064932       -1.98125240749535        2205.45745652091     
 -0.127703188680176       -1.99911891398110        407.466321123444     
  0.764742322752021      -0.697111481186711        164.392952585261     
   1.97854653093597       0.921071712582112        897.106479307400     
  0.441749329923527      -0.662553403407979        73.8758650204398     
   1.72014646648715      -0.854887416029592        1455.01900535000     
  0.728415651866241      -0.342038752149269        76.2217405982285     
  -1.70303623244961        1.98406151911246        91.2616392460927     
   1.99874053224544       -1.67612367815923        3217.12070500881     
   1.84496167323875       0.424599605544739        888.327257723526     
  -1.82212331657491       0.959121309502928        565.402180097814     
  -1.90150028567999       0.331304931653893        1087.14599204467     
  -1.42846908158479        1.93737637482200        6.96140362685087     
   1.80955803870145       0.696023263281407        665.509764749312     
  -1.71372413380917        1.30028866776463        275.197731241862     
  -1.73297286361987       0.666337950111320        553.559202616697     
   1.98629106866711       -1.38723531991526        2844.62174592416     
   1.60061594891818       0.320140113314672        502.941498457247     
 -0.353144795690454      -0.422089007660618        31.7300526575307     
  0.339477877420115       -1.20529660303562        174.819362558069     
   1.82359558258893        1.17522377832309        463.047457681818     
  -1.79683320384048        1.55307121316187        288.565151954792     
   1.33323094538358       0.173338180582655        257.446082302776     
   1.89278309516047        1.74610284003620        338.079471160198     
  0.767242164937424        1.18000779912584        35.0233343378114     
 -0.241135187845837        1.99732001519208        377.579933322500     
  -1.80864653431469       -1.76284261179421        2542.04929874465     
 -0.407620639970183        1.77147664288238        259.687286455735     
 -0.103022550705933        1.60491925774836        255.397697127278     
  0.632927543283120        1.49114078405439        119.063256692425     
  -1.98849681211195      -0.287320362664830        1807.91238494582     
  -1.32217074684398       0.295492355296509        216.409682859235     
   1.40739521273438        1.99133295219751       0.177146874456785     
 -0.734132159708516        1.44354233998950        84.8359394531690     
  -1.58279371671229      -0.211041469181077        744.487124995804     
  0.757634957407057       0.935111978656741        13.0981520869725     
  0.912696116794023        1.38440858642105        30.4111987280405     
  -1.79124568338864      -9.683376344166472E-002   1100.35457164038     
 -0.598492492589973       -1.99655711451833        557.040112614473     
 -0.362503377293859        1.48943412470958        186.279721262876     
 -0.410941262609219       0.607924767240644        21.2674251496951     
   1.77225832472790       -1.98571810468964        2628.81726072052     
  -1.95304187800822        1.73190578036544        442.387252347548     
   1.79147064055886        1.54756413048595        276.785322094378     
   1.97911713789603       0.253008351060648        1343.37227602046     
   1.22756371756286       -1.97922624444965        1215.36824577370     
  0.897980861012422       -1.12996088150962        374.947991624329     
  0.560367261820065       0.452425488921452        2.10912105992989     
  0.211545676837818       0.503817977391273        21.6958565480920     
  0.578967524168523       0.238204225113327        1.11815222298680     
   1.67557281230107        1.33907601232577        216.096294931554     
  0.496333080211233      -9.764484249338756E-002   12.0866865611075     
  0.797402930621514       -1.36223506721661        399.276012112526     
 -0.588674585121259      -0.174519686034765        29.6739738911927     
  0.774127161261678       0.399862451720905        4.02746970419319     
   1.01321784941387       -1.98043286554556        904.231101034963     
  0.372865602592592       0.152343674213395       0.411026252862409     
   1.07837577494268      -0.997024237552771        466.530956825066     
   1.25985646099813        1.30782734692572        7.87457357968608     
 -0.522138577679623       -1.13984596155671        201.825371193781     
 -0.351328501974120       4.243474446722795E-002   2.48213966484545     
  0.435068965255208       0.941606807588789        56.9179566100458     
 -5.620191394510865E-002 -0.715080074518869        52.7022497599405     
 -0.164304129766074       -1.79037426350693        331.639015984137     
  6.980732149229540E-002 -0.465766102787383        23.0153807749323     
 -0.333736276502612       -1.63794650702549        307.793141075466     
  -1.06888721311694       -1.16112772375659        534.959519933689     
  0.945853480027348        1.94647118785328        110.638067864489     
  0.384704828053839       -1.98707834673239        456.233605402083     
  -1.25912097383231      -0.759390683113883        554.901221901683     
  0.315161847574041       0.797065212307980        49.1528659587638     
 -0.178522072538060       0.634055557738081        37.6516431673073     
  -1.14625539026217      -0.916819323242671        502.217915501966     
  7.317757125531088E-002 -0.848712124688515        73.8020578056853     
   1.53746087121844       -1.18178426794419        1257.39566741734     
   1.45641840000097       0.713014209648683        198.494241219062     
  0.339071784123518        1.10189857661327        97.8396918322058     
  0.158622197349461      -0.639694864592016        44.9112488734219     
  -1.00697083584452       -1.34187693062829        559.038955922254     
   1.99835639177706       0.719575920342064        1072.80763527574     
  -1.25298265514551       -1.13030819886267        734.223754134767     
  -1.99346073337080        1.03369458697498        873.433182622045     
   1.56531453174804       -1.37471884526626        1463.32732888645     
  -1.80242707480251      -0.888588258268224        1719.60488944617     
  -1.99964265982401       -1.21816450672624        2730.43054768812     
   1.99903253724026        1.62073182668755        565.250229623579     
  -1.45040464054721       0.451922808117925        278.832557794078     
  0.451655241491669       -1.62415428595421        334.512733412615     
  -1.63402634546089      -0.904099054720501        1284.38659250276     
   1.83286733280293       -1.11809460756245        2005.49184578903     
  -1.92987877996429       -1.00088142634133        2241.44298694991     
 -0.724471911468594        1.20391278179692        49.0851324659780     
 -0.612067184203726        1.06532751955153        50.3055866429693     
 -0.974163319181739        1.98678875960463        111.599081325793     
  -1.34899942607964       0.676261505716216        136.285701662916     
   1.16820954072186      -0.422901578043651        319.585072269710     
   1.07616008791893      -0.208608833211581        186.800716905638     
 -0.628392100696263        1.74488187891546        184.903077444822     
  0.172318571187315       -1.32551223559432        184.343366617702     
 -0.507894447143519      -0.816157799962063        117.645956483737     
   1.93100229322341      -0.481608583662497        1773.59542615299     
  0.317570995346237       -1.77061526960444        350.704435341836     
  -1.88584536592954       0.563805337019536        903.898012825950     
 -0.703270665565370       0.865424937613960        16.6530135683370     
  -1.59747657943307       0.830447666215171        303.097516667750     
   1.90005001549127      -0.917380290418214        2050.69941906808     
  -1.80598512872531      -0.724687253055116        1596.90803568634     
