 variables= "x","y","fpcb"
 zone i=         156  datapacking=point
  0.000000000000000E+000  0.000000000000000E+000  0.000000000000000E+000
 -0.154729761172078       0.890161665129474       0.000000000000000E+000
   1.27508582310340        1.31074250050781       0.000000000000000E+000
  -1.63257109898579       -1.98715756782224       0.000000000000000E+000
 -0.440642468926656      -0.702696922403973       0.000000000000000E+000
   1.75838847903662        1.77282533952674       0.000000000000000E+000
  0.871530913120485       0.966390637873877       0.000000000000000E+000
 -0.907215621998945       0.309268978900320       0.000000000000000E+000
  0.427041065387753       6.554667255471092E-002  0.000000000000000E+000
  -1.99354108321129       -1.26616506261311       0.000000000000000E+000
   1.10046901900434      -0.436207332687897       0.000000000000000E+000
  -1.14447015163019       -1.51845857038967       0.000000000000000E+000
  -1.99197254528038       0.820831676544074       0.000000000000000E+000
  -1.99873112587993       0.165098138566429       0.000000000000000E+000
  -1.98283018223640        1.46985175336911       0.000000000000000E+000
 -7.444220895611031E-002   1.96981028900430       0.000000000000000E+000
   1.98817549216849       0.837104827921471       0.000000000000000E+000
   1.98275945778833       0.193833761188170       0.000000000000000E+000
  0.582210715377883        1.90921115128742       0.000000000000000E+000
  -1.34380179054283       0.806484154608383       0.000000000000000E+000
  0.605516490139551       -1.99441092289946       0.000000000000000E+000
  3.267803351375509E-002  -1.98965422979453       0.000000000000000E+000
   1.10841125405359       -1.95361950217459       0.000000000000000E+000
 -0.494093179265062       -1.97050874410909       0.000000000000000E+000
  0.294100497273440       -1.54714359103667       0.000000000000000E+000
   1.99669500565923       -1.27328780755699       0.000000000000000E+000
  0.827764926074219       -1.52907669586045       0.000000000000000E+000
 -0.213824406528074       -1.52327017809907       0.000000000000000E+000
   1.99014301517335      -0.768686006533543       0.000000000000000E+000
  -1.79559781789667        1.98634921605440       0.000000000000000E+000
  -1.99773888344450       -1.94028635632363       0.000000000000000E+000
   1.96101077568865       -1.97468793322769       0.000000000000000E+000
  -1.63886238430917      -0.504945210114414       0.000000000000000E+000
  -1.61205026698096      -0.873030025874637       0.000000000000000E+000
  -1.64170956401235      -0.125555309277459       0.000000000000000E+000
   1.71392608901902       -1.02316945608771       0.000000000000000E+000
   1.60963029482232       0.472439535290778       0.000000000000000E+000
  -1.29030820904874      -0.659760678579995       0.000000000000000E+000
  -1.27830486618384      -0.279832894442773       0.000000000000000E+000
  -1.53638084839945       0.241266639697776       0.000000000000000E+000
   1.58093126239601       0.104047584568665       0.000000000000000E+000
   1.56519124343348       0.837907858537720       0.000000000000000E+000
 -0.659086995177429        1.85160703906536       0.000000000000000E+000
   1.34584502350359        1.99861887309377       0.000000000000000E+000
  -1.66579676375535        1.53436459380640       0.000000000000000E+000
 -0.952254497183598        1.98292220179043       0.000000000000000E+000
  -1.74686069002409        1.20630478151397       0.000000000000000E+000
  -1.84590773368437       -1.64683406546239       0.000000000000000E+000
  -1.99851719711222      -0.554866573409490       0.000000000000000E+000
  -1.48107088575559        1.78996275345796       0.000000000000000E+000
 -0.379733780737348        1.67310357655971       0.000000000000000E+000
  0.990366513965817        1.99751086737419       0.000000000000000E+000
  -1.98806485516413      -0.867418127843966       0.000000000000000E+000
   1.75495498982106       -1.70139046131645       0.000000000000000E+000
   1.99722906165692        1.51373952407909       0.000000000000000E+000
   1.63338290354500       -1.99587595530382       0.000000000000000E+000
   1.98991817024647        1.99429996934886       0.000000000000000E+000
   1.73837954204555        1.41661280949828       0.000000000000000E+000
  0.451434321340574      -0.609181507595377       0.000000000000000E+000
  0.209707798733654        1.09759479908980       0.000000000000000E+000
 -0.874908191885401       0.939055366298516       0.000000000000000E+000
   1.22856261009684       0.299756403695384       0.000000000000000E+000
  0.387645940669751      -0.333096098553716       0.000000000000000E+000
  -1.02066380487944        1.19163787709914       0.000000000000000E+000
   1.84641114825533        1.16063009411328       0.000000000000000E+000
   1.49654339107024        1.57261804786921       0.000000000000000E+000
  0.599507092445069      -0.848094091086492       0.000000000000000E+000
  0.187797667971373      -0.707855704612921       0.000000000000000E+000
  -1.24796566399169        1.38048080270771       0.000000000000000E+000
  0.360286905914479       0.854367475637492       0.000000000000000E+000
   1.83314317721405      -5.572831230085851E-002  0.000000000000000E+000
   1.29497482668271       0.583068458782642       0.000000000000000E+000
  -1.98041438465838        1.80170385694560       0.000000000000000E+000
  0.557336954960626        1.65183587000084       0.000000000000000E+000
  0.348392169789367        1.97874043416883       0.000000000000000E+000
  0.777613194117418        1.75950413084112       0.000000000000000E+000
  -1.77842686785635       0.606742625981204       0.000000000000000E+000
  -1.27175245105285       -1.99152887645863       0.000000000000000E+000
   1.41400957160534       -1.14008163364396       0.000000000000000E+000
  -1.90219038745539       0.378074686024258       0.000000000000000E+000
  0.863201641238547        1.39036879037767       0.000000000000000E+000
  0.328372918933948        1.73025651534979       0.000000000000000E+000
 -0.428150856813985        1.96536211420099       0.000000000000000E+000
   1.67049589634661        1.99768114878974       0.000000000000000E+000
   1.99607748462313      -0.261922337585346       0.000000000000000E+000
   1.44519273866044       -1.37957070216435       0.000000000000000E+000
   1.20551508498956      -0.958547778698221       0.000000000000000E+000
 -0.829238168355418       -1.27024944725390       0.000000000000000E+000
  2.546828189132100E-002   1.44108734766753       0.000000000000000E+000
   1.88312225455285       0.547041425297986       0.000000000000000E+000
   1.99382248267151       -1.62733071985943       0.000000000000000E+000
 -0.422299889312888       4.924641541349351E-002  0.000000000000000E+000
 -0.574778230029350      -0.132882776074772       0.000000000000000E+000
 -0.458915467118381       0.261231053371893       0.000000000000000E+000
 -0.528991506378865        1.45631698733180       0.000000000000000E+000
  -1.21171701845900        1.99617692800964       0.000000000000000E+000
  -1.88127274584602       -1.04884696375217       0.000000000000000E+000
 -0.727761477808965      -0.280998274353208       0.000000000000000E+000
  -1.88772986920211      -0.299611479391514       0.000000000000000E+000
  -1.77047095178627        1.76072948574130       0.000000000000000E+000
   1.78123713415716       -1.35014583152326       0.000000000000000E+000
  9.587960921063532E-002  0.513502509455008       0.000000000000000E+000
  -1.43089103220178        1.99951517037710       0.000000000000000E+000
 -0.711188797954946        1.07052955313652       0.000000000000000E+000
  -1.81818964612365      -0.689649950048349       0.000000000000000E+000
 -0.841934215833626       -1.67442047166000       0.000000000000000E+000
 -0.632498305456762       7.151681180554936E-002  0.000000000000000E+000
   1.64958241539319      -0.445744728267960       0.000000000000000E+000
 -0.727071716707213        1.55614930600504       0.000000000000000E+000
   1.98604291276779        1.73330935616573       0.000000000000000E+000
  -1.99267813389560       0.585276730688848       0.000000000000000E+000
  -1.28611987617411        1.10325652688108       0.000000000000000E+000
   1.87240722960317      -0.456274991270265       0.000000000000000E+000
   1.84531346871921      -0.654826365753289       0.000000000000000E+000
  0.621370204961877       0.577088365633028       0.000000000000000E+000
  0.786894292552910       0.481469077064892       0.000000000000000E+000
  0.608658155415643        1.05322193130119       0.000000000000000E+000
   1.38955437318534      -0.385409502565797       0.000000000000000E+000
  -1.87347198662183       0.973321393993003       0.000000000000000E+000
 -0.151378532950226       0.394835943004070       0.000000000000000E+000
   1.76149496722297       0.791384836763258       0.000000000000000E+000
  -1.80944474331036        1.39055249165451       0.000000000000000E+000
  -1.80791923570179       -1.89914499367438       0.000000000000000E+000
   1.98673274847622       0.392927961374961       0.000000000000000E+000
  0.825619206791949       0.167198565559546       0.000000000000000E+000
  0.434483952631466       0.591220611745794       0.000000000000000E+000
  -1.23843950651737       0.364889183542609       0.000000000000000E+000
   1.51453454435779      -0.696257096712534       0.000000000000000E+000
  0.124559885536838       0.839181421931691       0.000000000000000E+000
  0.809841243926353      -0.271438560738579       0.000000000000000E+000
 -0.754405273467946      -0.836239722817133       0.000000000000000E+000
  -1.69503284378087       -1.39283019528326       0.000000000000000E+000
  -1.98136404197478        1.97474765298210       0.000000000000000E+000
  -1.62540227472418       -1.80191464277424       0.000000000000000E+000
 -0.963017541664120        1.79898845697548       0.000000000000000E+000
 -0.701788037670523       0.740682119246018       0.000000000000000E+000
 -0.285528856371108       0.777374752672292       0.000000000000000E+000
   1.88784109868768       -1.81344565697364       0.000000000000000E+000
  -1.99822173779878       -1.73201917531013       0.000000000000000E+000
  -1.61919718320408       -1.62374748438043       0.000000000000000E+000
  -1.17753475485044       -1.07345193743568       0.000000000000000E+000
  -1.45602647843033       -1.84576625310929       0.000000000000000E+000
  -1.99623774340294        1.21188328374030       0.000000000000000E+000
 -0.892481798613273       -1.99275112805145       0.000000000000000E+000
 -0.757779280603165        1.98828894389579       0.000000000000000E+000
 -0.161556198562825      -0.404815927987025       0.000000000000000E+000
   1.85339358261366        1.60939113323948       0.000000000000000E+000
  -1.32710250006434       -1.15057921492878       0.000000000000000E+000
 -0.271915093421094       0.586828667704543       0.000000000000000E+000
 -0.495538412604245       -1.22802033920390       0.000000000000000E+000
  0.901604447292420        1.59777924025032       0.000000000000000E+000
   1.94595387407228        1.35359883243324       0.000000000000000E+000
  -1.62224392653125       0.763289103256680       0.000000000000000E+000
 -0.951536580849895        1.58844556048600       0.000000000000000E+000
   1.08311140531264      -0.107609558318981       0.000000000000000E+000
 -0.538698639632028       0.781978475394749       0.000000000000000E+000
