 variables= "x","y","fPC"
 zone i=         101  j=         101  datapacking=point
  -2.00000000000000       -2.00000000000000      -0.685960372432215     
  -2.00000000000000       -1.96000000000000      -0.708266886992061     
  -2.00000000000000       -1.92000000000000      -0.730479607520423     
  -2.00000000000000       -1.88000000000000      -0.752455321519348     
  -2.00000000000000       -1.84000000000000      -0.774059891489014     
  -2.00000000000000       -1.80000000000000      -0.795167929037474     
  -2.00000000000000       -1.76000000000000      -0.815662479281794     
  -2.00000000000000       -1.72000000000000      -0.835434715316044     
  -2.00000000000000       -1.68000000000000      -0.854383642521535     
  -2.00000000000000       -1.64000000000000      -0.872415812494740     
  -2.00000000000000       -1.60000000000000      -0.889445046368309     
  -2.00000000000000       -1.56000000000000      -0.905392167300614     
  -2.00000000000000       -1.52000000000000      -0.920184741909230     
  -2.00000000000000       -1.48000000000000      -0.933756830423785     
  -2.00000000000000       -1.44000000000000      -0.946048745333603     
  -2.00000000000000       -1.40000000000000      -0.957006818305548     
  -2.00000000000000       -1.36000000000000      -0.966583175147500     
  -2.00000000000000       -1.32000000000000      -0.974735518592893     
  -2.00000000000000       -1.28000000000000      -0.981426918681710     
  -2.00000000000000       -1.24000000000000      -0.986625610513400     
  -2.00000000000000       -1.20000000000000      -0.990304799147089     
  -2.00000000000000       -1.16000000000000      -0.992442471424542     
  -2.00000000000000       -1.12000000000000      -0.993021214491294     
  -2.00000000000000       -1.08000000000000      -0.992028040791348     
  -2.00000000000000       -1.04000000000000      -0.989454219310895     
  -2.00000000000000       -1.00000000000000      -0.985295112846450     
  -2.00000000000000      -0.960000000000000      -0.979550021072847     
  -2.00000000000000      -0.920000000000000      -0.972222029186490     
  -2.00000000000000      -0.880000000000000      -0.963317861899324     
  -2.00000000000000      -0.840000000000000      -0.952847742558886     
  -2.00000000000000      -0.800000000000000      -0.940825257169922     
  -2.00000000000000      -0.760000000000000      -0.927267223092945     
  -2.00000000000000      -0.720000000000000      -0.912193562195182     
  -2.00000000000000      -0.680000000000000      -0.895627178229321     
  -2.00000000000000      -0.640000000000000      -0.877593838215478     
  -2.00000000000000      -0.600000000000000      -0.858122057601812     
  -2.00000000000000      -0.560000000000000      -0.837242988979214     
  -2.00000000000000      -0.520000000000000      -0.814990314125473     
  -2.00000000000000      -0.480000000000000      -0.791400139154365     
  -2.00000000000000      -0.440000000000000      -0.766510892545063     
  -2.00000000000000      -0.400000000000000      -0.740363225827318     
  -2.00000000000000      -0.360000000000000      -0.712999916697796     
  -2.00000000000000      -0.320000000000000      -0.684465774343035     
  -2.00000000000000      -0.280000000000000      -0.654807546744403     
  -2.00000000000000      -0.240000000000000      -0.624073829740513     
  -2.00000000000000      -0.200000000000000      -0.592314977622489     
  -2.00000000000000      -0.160000000000000      -0.559583015037534     
  -2.00000000000000      -0.120000000000000      -0.525931549976184     
  -2.00000000000000      -8.000000000000007E-002 -0.491415687618712     
  -2.00000000000000      -4.000000000000004E-002 -0.456091944816072     
  -2.00000000000000       0.000000000000000E+000 -0.420018164980815     
  -2.00000000000000       4.000000000000004E-002 -0.383253433163407     
  -2.00000000000000       8.000000000000007E-002 -0.345857991089357     
  -2.00000000000000       0.120000000000000      -0.307893151932588     
  -2.00000000000000       0.160000000000000      -0.269421214600464     
  -2.00000000000000       0.200000000000000      -0.230505377305901     
  -2.00000000000000       0.240000000000000      -0.191209650201985     
  -2.00000000000000       0.280000000000000      -0.151598766854512     
  -2.00000000000000       0.320000000000000      -0.111738094327870     
  -2.00000000000000       0.360000000000000      -7.169354165970751E-002
  -2.00000000000000       0.400000000000000      -3.153146649977381E-002
  -2.00000000000000       0.440000000000000       8.681420311616785E-003
  -2.00000000000000       0.480000000000000       4.887815245008816E-002
  -2.00000000000000       0.520000000000000       8.899160832324980E-002
  -2.00000000000000       0.560000000000000       0.128954614020866     
  -2.00000000000000       0.600000000000000       0.168700049223723     
  -2.00000000000000       0.640000000000000       0.208160956295776     
  -2.00000000000000       0.680000000000000       0.247270652784153     
  -2.00000000000000       0.720000000000000       0.285962847551589     
  -2.00000000000000       0.760000000000000       0.324171760765877     
  -2.00000000000000       0.800000000000000       0.361832247970909     
  -2.00000000000000       0.840000000000000       0.398879928463883     
  -2.00000000000000       0.880000000000000       0.435251318203259     
  -2.00000000000000       0.920000000000000       0.470883967472041     
  -2.00000000000000       0.960000000000000       0.505716603520964     
  -2.00000000000000        1.00000000000000       0.539689278416153     
  -2.00000000000000        1.04000000000000       0.572743522315860     
  -2.00000000000000        1.08000000000000       0.604822502400818     
  -2.00000000000000        1.12000000000000       0.635871187682827     
  -2.00000000000000        1.16000000000000       0.665836519916123     
  -2.00000000000000        1.20000000000000       0.694667590836134     
  -2.00000000000000        1.24000000000000       0.722315825950169     
  -2.00000000000000        1.28000000000000       0.748735175104647     
  -2.00000000000000        1.32000000000000       0.773882310053436     
  -2.00000000000000        1.36000000000000       0.797716829251863     
  -2.00000000000000        1.40000000000000       0.820201470101003     
  -2.00000000000000        1.44000000000000       0.841302328866802     
  -2.00000000000000        1.48000000000000       0.860989088498618     
  -2.00000000000000        1.52000000000000       0.879235254571764     
  -2.00000000000000        1.56000000000000       0.896018399578626     
  -2.00000000000000        1.60000000000000       0.911320415792938     
  -2.00000000000000        1.64000000000000       0.925127776931782     
  -2.00000000000000        1.68000000000000       0.937431808839907     
  -2.00000000000000        1.72000000000000       0.948228969420930     
  -2.00000000000000        1.76000000000000       0.957521138040012     
  -2.00000000000000        1.80000000000000       0.965315914622571     
  -2.00000000000000        1.84000000000000       0.971626928673624     
  -2.00000000000000        1.88000000000000       0.976474158442326     
  -2.00000000000000        1.92000000000000       0.979884260456295     
  -2.00000000000000        1.96000000000000       0.981890909650291     
  -2.00000000000000        2.00000000000000       0.982535150313829     
  -1.96000000000000       -2.00000000000000      -0.700587294441122     
  -1.96000000000000       -1.96000000000000      -0.723330908371880     
  -1.96000000000000       -1.92000000000000      -0.745814407722089     
  -1.96000000000000       -1.88000000000000      -0.767903204538649     
  -1.96000000000000       -1.84000000000000      -0.789471614403331     
  -1.96000000000000       -1.80000000000000      -0.810402530488189     
  -1.96000000000000       -1.76000000000000      -0.830587107940358     
  -1.96000000000000       -1.72000000000000      -0.849924458371727     
  -1.96000000000000       -1.68000000000000      -0.868321354228856     
  -1.96000000000000       -1.64000000000000      -0.885691942818590     
  -1.96000000000000       -1.60000000000000      -0.901957469764778     
  -1.96000000000000       -1.56000000000000      -0.917046011671525     
  -1.96000000000000       -1.52000000000000      -0.930892217768389     
  -1.96000000000000       -1.48000000000000      -0.943437060312963     
  -1.96000000000000       -1.44000000000000      -0.954627593526244     
  -1.96000000000000       -1.40000000000000      -0.964416720836225     
  -1.96000000000000       -1.36000000000000      -0.972762970205120     
  -1.96000000000000       -1.32000000000000      -0.979630277315660     
  -1.96000000000000       -1.28000000000000      -0.984987776391861     
  -1.96000000000000       -1.24000000000000      -0.988809598429708     
  -1.96000000000000       -1.20000000000000      -0.991074676613153     
  -1.96000000000000       -1.16000000000000      -0.991766558690880     
  -1.96000000000000       -1.12000000000000      -0.990873226089215     
  -1.96000000000000       -1.08000000000000      -0.988386919536653     
  -1.96000000000000       -1.04000000000000      -0.984303970975384     
  -1.96000000000000       -1.00000000000000      -0.978624641535259     
  -1.96000000000000      -0.960000000000000      -0.971352965345619     
  -1.96000000000000      -0.920000000000000      -0.962496598960386     
  -1.96000000000000      -0.880000000000000      -0.952066676171879     
  -1.96000000000000      -0.840000000000000      -0.940077667988741     
  -1.96000000000000      -0.800000000000000      -0.926547247553404     
  -1.96000000000000      -0.760000000000000      -0.911496159774532     
  -1.96000000000000      -0.720000000000000      -0.894948095449850     
  -1.96000000000000      -0.680000000000000      -0.876929569654781     
  -1.96000000000000      -0.640000000000000      -0.857469804172319     
  -1.96000000000000      -0.600000000000000      -0.836600613739544     
  -1.96000000000000      -0.560000000000000      -0.814356295886235     
  -1.96000000000000      -0.520000000000000      -0.790773524140955     
  -1.96000000000000      -0.480000000000000      -0.765891244380082     
  -1.96000000000000      -0.440000000000000      -0.739750574095153     
  -1.96000000000000      -0.400000000000000      -0.712394704353995     
  -1.96000000000000      -0.360000000000000      -0.683868804231026     
  -1.96000000000000      -0.320000000000000      -0.654219927482174     
  -1.96000000000000      -0.280000000000000      -0.623496921239812     
  -1.96000000000000      -0.240000000000000      -0.591750336503155     
  -1.96000000000000      -0.200000000000000      -0.559032340199522     
  -1.96000000000000      -0.160000000000000      -0.525396628591891     
  -1.96000000000000      -0.120000000000000      -0.490898341808182     
  -1.96000000000000      -8.000000000000007E-002 -0.455593979267656     
  -1.96000000000000      -4.000000000000004E-002 -0.419541315779898     
  -1.96000000000000       0.000000000000000E+000 -0.382799318091761     
  -1.96000000000000       4.000000000000004E-002 -0.345428061657725     
  -1.96000000000000       8.000000000000007E-002 -0.307488647409076     
  -1.96000000000000       0.120000000000000      -0.269043118297333     
  -1.96000000000000       0.160000000000000      -0.230154375387345     
  -1.96000000000000       0.200000000000000      -0.190886093275473     
  -1.96000000000000       0.240000000000000      -0.151302634608292     
  -1.96000000000000       0.280000000000000      -0.111468963477222     
  -1.96000000000000       0.320000000000000      -7.145055746451268E-002
  -1.96000000000000       0.360000000000000      -3.131331811601158E-002
  -1.96000000000000       0.400000000000000       8.876520383870566E-003
  -1.96000000000000       0.440000000000000       4.905248455957602E-002
  -1.96000000000000       0.480000000000000       8.914795723876986E-002
  -1.96000000000000       0.520000000000000       0.129096275618246     
  -1.96000000000000       0.560000000000000       0.168830832025947     
  -1.96000000000000       0.600000000000000       0.208285177603673     
  -1.96000000000000       0.640000000000000       0.247393129135067     
  -1.96000000000000       0.680000000000000       0.286088879243437     
  -1.96000000000000       0.720000000000000       0.324307110184014     
  -1.96000000000000       0.760000000000000       0.361983111455211     
  -1.96000000000000       0.800000000000000       0.399052901453462     
  -1.96000000000000       0.840000000000000       0.435453353396224     
  -1.96000000000000       0.880000000000000       0.471122325737719     
  -1.96000000000000       0.920000000000000       0.505998797301988     
  -1.96000000000000       0.960000000000000       0.540023007357847     
  -1.96000000000000        1.00000000000000       0.573136600860309     
  -1.96000000000000        1.04000000000000       0.605282779083066     
  -1.96000000000000        1.08000000000000       0.636406455866589     
  -1.96000000000000        1.12000000000000       0.666454419706450     
  -1.96000000000000        1.16000000000000       0.695375501906416     
  -1.96000000000000        1.20000000000000       0.723120751020919     
  -1.96000000000000        1.24000000000000       0.749643613811462     
  -1.96000000000000        1.28000000000000       0.774900122941545     
  -1.96000000000000        1.32000000000000       0.798849091634692     
  -1.96000000000000        1.36000000000000       0.821452315520157     
  -1.96000000000000        1.40000000000000       0.842674781890882     
  -1.96000000000000        1.44000000000000       0.862484886598285     
  -1.96000000000000        1.48000000000000       0.880854658808470     
  -1.96000000000000        1.52000000000000       0.897759993844416     
  -1.96000000000000        1.56000000000000       0.913180894338737     
  -1.96000000000000        1.60000000000000       0.927101719921594     
  -1.96000000000000        1.64000000000000       0.939511445668322     
  -1.96000000000000        1.68000000000000       0.950403929531365     
  -1.96000000000000        1.72000000000000       0.959778188981089     
  -1.96000000000000        1.76000000000000       0.967638687080060     
  -1.96000000000000        1.80000000000000       0.973995628215350     
  -1.96000000000000        1.84000000000000       0.978865263713458     
  -1.96000000000000        1.88000000000000       0.982270207562437     
  -1.96000000000000        1.92000000000000       0.984239762465780     
  -1.96000000000000        1.96000000000000       0.984810256452658     
  -1.96000000000000        2.00000000000000       0.984025390269093     
  -1.92000000000000       -2.00000000000000      -0.716236494117227     
  -1.92000000000000       -1.96000000000000      -0.739222837112598     
  -1.92000000000000       -1.92000000000000      -0.761792697753323     
  -1.92000000000000       -1.88000000000000      -0.783819883247065     
  -1.92000000000000       -1.84000000000000      -0.805186934593417     
  -1.92000000000000       -1.80000000000000      -0.825784800600945     
  -1.92000000000000       -1.76000000000000      -0.845512522271635     
  -1.92000000000000       -1.72000000000000      -0.864276927328209     
  -1.92000000000000       -1.68000000000000      -0.881992334659705     
  -1.92000000000000       -1.64000000000000      -0.898580268460756     
  -1.92000000000000       -1.60000000000000      -0.913969181839979     
  -1.92000000000000       -1.56000000000000      -0.928094189672917     
  -1.92000000000000       -1.52000000000000      -0.940896810474923     
  -1.92000000000000       -1.48000000000000      -0.952324717069443     
  -1.92000000000000       -1.44000000000000      -0.962331495827092     
  -1.92000000000000       -1.40000000000000      -0.970876414250958     
  -1.92000000000000       -1.36000000000000      -0.977924196683564     
  -1.92000000000000       -1.32000000000000      -0.983444807910879     
  -1.92000000000000       -1.28000000000000      -0.987413244438846     
  -1.92000000000000       -1.24000000000000      -0.989809333217794     
  -1.92000000000000       -1.20000000000000      -0.990617537590217     
  -1.92000000000000       -1.16000000000000      -0.989826770237285     
  -1.92000000000000       -1.12000000000000      -0.987430212899539     
  -1.92000000000000       -1.08000000000000      -0.983425142647200     
  -1.92000000000000       -1.04000000000000      -0.977812764475479     
  -1.92000000000000       -1.00000000000000      -0.970598050000351     
  -1.92000000000000      -0.960000000000000      -0.961789582030183     
  -1.92000000000000      -0.920000000000000      -0.951399404788649     
  -1.92000000000000      -0.880000000000000      -0.939442879564365     
  -1.92000000000000      -0.840000000000000      -0.925938545562645     
  -1.92000000000000      -0.800000000000000      -0.910907985734817     
  -1.92000000000000      -0.760000000000000      -0.894375697360503     
  -1.92000000000000      -0.720000000000000      -0.876368967158317     
  -1.92000000000000      -0.680000000000000      -0.856917750700358     
  -1.92000000000000      -0.640000000000000      -0.836054555905957     
  -1.92000000000000      -0.600000000000000      -0.813814330390085     
  -1.92000000000000      -0.560000000000000      -0.790234352441844     
  -1.92000000000000      -0.520000000000000      -0.765354125408459     
  -1.92000000000000      -0.480000000000000      -0.739215275260205     
  -1.92000000000000      -0.440000000000000      -0.711861451111683     
  -1.92000000000000      -0.400000000000000      -0.683338228474861     
  -1.92000000000000      -0.360000000000000      -0.653693015019314     
  -1.92000000000000      -0.320000000000000      -0.622974958615079     
  -1.92000000000000      -0.280000000000000      -0.591234857433542     
  -1.92000000000000      -0.240000000000000      -0.558525071881788     
  -1.92000000000000      -0.200000000000000      -0.524899438145831     
  -1.92000000000000      -0.160000000000000      -0.490413183118147     
  -1.92000000000000      -0.120000000000000      -0.455122840484924     
  -1.92000000000000      -8.000000000000007E-002 -0.419086167748470     
  -1.92000000000000      -4.000000000000004E-002 -0.382362063960181     
  -1.92000000000000       0.000000000000000E+000 -0.345010487939494     
  -1.92000000000000       4.000000000000004E-002 -0.307092376754267     
  -1.92000000000000       8.000000000000007E-002 -0.268669564237974     
  -1.92000000000000       0.120000000000000      -0.229804699319167     
  -1.92000000000000       0.160000000000000      -0.190561163938613     
  -1.92000000000000       0.200000000000000      -0.151002990329524     
  -1.92000000000000       0.240000000000000      -0.111194777436315     
  -1.92000000000000       0.280000000000000      -7.120160624729879E-002
  -1.92000000000000       0.320000000000000      -3.108895381674560E-002
  -1.92000000000000       0.360000000000000       9.077394248267012E-003
  -1.92000000000000       0.400000000000000       4.923143306080197E-002
  -1.92000000000000       0.440000000000000       8.930702971137804E-002
  -1.92000000000000       0.480000000000000       0.129238016734235     
  -1.92000000000000       0.520000000000000       0.168958288007123     
  -1.92000000000000       0.560000000000000       0.208401897309204     
  -1.92000000000000       0.600000000000000       0.247503159761624     
  -1.92000000000000       0.640000000000000       0.286196756375362     
  -1.92000000000000       0.680000000000000       0.324417841930902     
  -1.92000000000000       0.720000000000000       0.362102156414340     
  -1.92000000000000       0.760000000000000       0.399186140234472     
  -1.92000000000000       0.800000000000000       0.435607053445465     
  -1.92000000000000       0.840000000000000       0.471303099199675     
  -1.92000000000000       0.880000000000000       0.506213551655203     
  -1.92000000000000       0.920000000000000       0.540278888562747     
  -1.92000000000000       0.960000000000000       0.573440928756357     
  -1.92000000000000        1.00000000000000       0.605642974772638     
  -1.92000000000000        1.04000000000000       0.636829960823013     
  -1.92000000000000        1.08000000000000       0.666948606343591     
  -1.92000000000000        1.12000000000000       0.695947575347249     
  -1.92000000000000        1.16000000000000       0.723777641802480     
  -1.92000000000000        1.20000000000000       0.750391861263606     
  -1.92000000000000        1.24000000000000       0.775745748976922     
  -1.92000000000000        1.28000000000000       0.799797464687345     
  -1.92000000000000        1.32000000000000       0.822508004370167     
  -1.92000000000000        1.36000000000000       0.843841399112469     
  -1.92000000000000        1.40000000000000       0.863764921368776     
  -1.92000000000000        1.44000000000000       0.882249298815552     
  -1.92000000000000        1.48000000000000       0.899268936029084     
  -1.92000000000000        1.52000000000000       0.914802144211355     
  -1.92000000000000        1.56000000000000       0.928831379188473     
  -1.92000000000000        1.60000000000000       0.941343487906244     
  -1.92000000000000        1.64000000000000       0.952329963647450     
  -1.92000000000000        1.68000000000000       0.961787210195432     
  -1.92000000000000        1.72000000000000       0.969716815168538     
  -1.92000000000000        1.76000000000000       0.976125832750022     
  -1.92000000000000        1.80000000000000       0.981027076037985     
  -1.92000000000000        1.84000000000000       0.984439419239896     
  -1.92000000000000        1.88000000000000       0.986388109936321     
  -1.92000000000000        1.92000000000000       0.986905091638413     
  -1.92000000000000        1.96000000000000       0.986029336863728     
  -1.92000000000000        2.00000000000000       0.983807190954979     
  -1.88000000000000       -2.00000000000000      -0.732670443689514     
  -1.88000000000000       -1.96000000000000      -0.755716452978500     
  -1.88000000000000       -1.92000000000000      -0.778199308203857     
  -1.88000000000000       -1.88000000000000      -0.800000984581915     
  -1.88000000000000       -1.84000000000000      -0.821012023102602     
  -1.88000000000000       -1.80000000000000      -0.841131204524104     
  -1.88000000000000       -1.76000000000000      -0.860265233772915     
  -1.88000000000000       -1.72000000000000      -0.878328434524784     
  -1.88000000000000       -1.68000000000000      -0.895242453741922     
  -1.88000000000000       -1.64000000000000      -0.910935975941925     
  -1.88000000000000       -1.60000000000000      -0.925344446973808     
  -1.88000000000000       -1.56000000000000      -0.938409807076604     
  -1.88000000000000       -1.52000000000000      -0.950080232995917     
  -1.88000000000000       -1.48000000000000      -0.960309888933872     
  -1.88000000000000       -1.44000000000000      -0.969058686107870     
  -1.88000000000000       -1.40000000000000      -0.976292050693597     
  -1.88000000000000       -1.36000000000000      -0.981980699927665     
  -1.88000000000000       -1.32000000000000      -0.986100426145343     
  -1.88000000000000       -1.28000000000000      -0.988631888528789     
  -1.88000000000000       -1.24000000000000      -0.989560412341200     
  -1.88000000000000       -1.20000000000000      -0.988875795422303     
  -1.88000000000000       -1.16000000000000      -0.986572121720618     
  -1.88000000000000       -1.12000000000000      -0.982647581637902     
  -1.88000000000000       -1.08000000000000      -0.977104298961205     
  -1.88000000000000       -1.04000000000000      -0.969948164157953     
  -1.88000000000000       -1.00000000000000      -0.961188673809490     
  -1.88000000000000      -0.960000000000000      -0.950838775958487     
  -1.88000000000000      -0.920000000000000      -0.938914721145651     
  -1.88000000000000      -0.880000000000000      -0.925435918911152     
  -1.88000000000000      -0.840000000000000      -0.910424799536188     
  -1.88000000000000      -0.800000000000000      -0.893906680800113     
  -1.88000000000000      -0.760000000000000      -0.875909639528544     
  -1.88000000000000      -0.720000000000000      -0.856464387707884     
  -1.88000000000000      -0.680000000000000      -0.835604152941658     
  -1.88000000000000      -0.640000000000000      -0.813364563024108     
  -1.88000000000000      -0.600000000000000      -0.789783534406452     
  -1.88000000000000      -0.560000000000000      -0.764901164331244     
  -1.88000000000000      -0.520000000000000      -0.738759626410238     
  -1.88000000000000      -0.480000000000000      -0.711403069421194     
  -1.88000000000000      -0.440000000000000      -0.682877519099039     
  -1.88000000000000      -0.400000000000000      -0.653230782696817     
  -1.88000000000000      -0.360000000000000      -0.622512356091821     
  -1.88000000000000      -0.320000000000000      -0.590773333212368     
  -1.88000000000000      -0.280000000000000      -0.558066317560612     
  -1.88000000000000      -0.240000000000000      -0.524445335606818     
  -1.88000000000000      -0.200000000000000      -0.489965751830536     
  -1.88000000000000      -0.160000000000000      -0.454684185184072     
  -1.88000000000000      -0.120000000000000      -0.418658426753708     
  -1.88000000000000      -8.000000000000007E-002 -0.381947358394061     
  -1.88000000000000      -4.000000000000004E-002 -0.344610872111025     
  -1.88000000000000       0.000000000000000E+000 -0.306709789968715     
  -1.88000000000000       4.000000000000004E-002 -0.268305784295817     
  -1.88000000000000       8.000000000000007E-002 -0.229461297966799     
  -1.88000000000000       0.120000000000000      -0.190239464533366     
  -1.88000000000000       0.160000000000000      -0.150704027981612     
  -1.88000000000000       0.200000000000000      -0.110919261890278     
  -1.88000000000000       0.240000000000000      -7.094988776553023E-002
  -1.88000000000000       0.280000000000000      -3.086099232770421E-002
  -1.88000000000000       0.320000000000000       9.282056474596677E-003
  -1.88000000000000       0.360000000000000       4.941369494759326E-002
  -1.88000000000000       0.400000000000000       8.946825085721598E-002
  -1.88000000000000       0.440000000000000       0.129380032580348     
  -1.88000000000000       0.480000000000000       0.169083420427010     
  -1.88000000000000       0.520000000000000       0.208512960358065     
  -1.88000000000000       0.560000000000000       0.247603460323015     
  -1.88000000000000       0.600000000000000       0.286290089442479     
  -1.88000000000000       0.640000000000000       0.324508480259920     
  -1.88000000000000       0.680000000000000       0.362194834287203     
  -1.88000000000000       0.720000000000000       0.399286031068564     
  -1.88000000000000       0.760000000000000       0.435719740987566     
  -1.88000000000000       0.800000000000000       0.471434542041623     
  -1.88000000000000       0.840000000000000       0.506370040808664     
  -1.88000000000000       0.880000000000000       0.540466997830518     
  -1.88000000000000       0.920000000000000       0.573667457637610     
  -1.88000000000000       0.960000000000000       0.605914883639519     
  -1.88000000000000        1.00000000000000       0.637154298106010     
  -1.88000000000000        1.04000000000000       0.667332427463087     
  -1.88000000000000        1.08000000000000       0.696397853128664     
  -1.88000000000000        1.12000000000000       0.724301168112433     
  -1.88000000000000        1.16000000000000       0.750995139604490     
  -1.88000000000000        1.20000000000000       0.776434877777321     
  -1.88000000000000        1.24000000000000       0.800578011025702     
  -1.88000000000000        1.28000000000000       0.823384867869111     
  -1.88000000000000        1.32000000000000       0.844818665741221     
  -1.88000000000000        1.36000000000000       0.864845706891050     
  -1.88000000000000        1.40000000000000       0.883435581620352     
  -1.88000000000000        1.44000000000000       0.900561379081826     
  -1.88000000000000        1.48000000000000       0.916199905862715     
  -1.88000000000000        1.52000000000000       0.930331912578386     
  -1.88000000000000        1.56000000000000       0.942942328700450     
  -1.88000000000000        1.60000000000000       0.954020505844026     
  -1.88000000000000        1.64000000000000       0.963560469738696     
  -1.88000000000000        1.68000000000000       0.971561181107761     
  -1.88000000000000        1.72000000000000       0.978026805680352     
  -1.88000000000000        1.76000000000000       0.982966993560982     
  -1.88000000000000        1.80000000000000       0.986397168181132     
  -1.88000000000000        1.84000000000000       0.988338825057413     
  -1.88000000000000        1.88000000000000       0.988819840580923     
  -1.88000000000000        1.92000000000000       0.987874791062358     
  -1.88000000000000        1.96000000000000       0.985545282257440     
  -1.88000000000000        2.00000000000000       0.981880289597275     
  -1.84000000000000       -2.00000000000000      -0.749665365164664     
  -1.84000000000000       -1.96000000000000      -0.772598959055666     
  -1.84000000000000       -1.92000000000000      -0.794832169431878     
  -1.84000000000000       -1.88000000000000      -0.816254914603526     
  -1.84000000000000       -1.84000000000000      -0.836765512365020     