 variables= "x","y","f"
 zone i=         101  j=         101  datapacking=point
   149.250000000000        39.2500000000000        19.2043017635950     
   149.250000000000        39.2650000000000        19.1969653437185     
   149.250000000000        39.2800000000000        19.1896345270139     
   149.250000000000        39.2950000000000        19.1823093070647     
   149.250000000000        39.3100000000000        19.1749896774639     
   149.250000000000        39.3250000000000        19.1676756318145     
   149.250000000000        39.3400000000000        19.1603671637292     
   149.250000000000        39.3550000000000        19.1530642668303     
   149.250000000000        39.3700000000000        19.1457669347500     
   149.250000000000        39.3850000000000        19.1384751611300     
   149.250000000000        39.4000000000000        19.1311889396220     
   149.250000000000        39.4150000000000        19.1239082638870     
   149.250000000000        39.4300000000000        19.1166331275959     
   149.250000000000        39.4450000000000        19.1093635244291     
   149.250000000000        39.4600000000000        19.1020994480767     
   149.250000000000        39.4750000000000        19.0948408922383     
   149.250000000000        39.4900000000000        19.0875878506231     
   149.250000000000        39.5050000000000        19.0803403169499     
   149.250000000000        39.5200000000000        19.0730982849470     
   149.250000000000        39.5350000000000        19.0658617483522     
   149.250000000000        39.5500000000000        19.0586307009129     
   149.250000000000        39.5650000000000        19.0514051363858     
   149.250000000000        39.5800000000000        19.0441850485373     
   149.250000000000        39.5950000000000        19.0369704311430     
   149.250000000000        39.6100000000000        19.0297612779880     
   149.250000000000        39.6250000000000        19.0225575828670     
   149.250000000000        39.6400000000000        19.0153593395839     
   149.250000000000        39.6550000000000        19.0081665419520     
   149.250000000000        39.6700000000000        19.0009791837939     
   149.250000000000        39.6850000000000        18.9937972589418     
   149.250000000000        39.7000000000000        18.9866207612369     
   149.250000000000        39.7150000000000        18.9794496845299     
   149.250000000000        39.7300000000000        18.9722840226807     
   149.250000000000        39.7450000000000        18.9651237695586     
   149.250000000000        39.7600000000000        18.9579689190419     
   149.250000000000        39.7750000000000        18.9508194650184     
   149.250000000000        39.7900000000000        18.9436754013849     
   149.250000000000        39.8050000000000        18.9365367220476     
   149.250000000000        39.8200000000000        18.9294034209218     
   149.250000000000        39.8350000000000        18.9222754919319     
   149.250000000000        39.8500000000000        18.9151529290114     
   149.250000000000        39.8650000000000        18.9080357261032     
   149.250000000000        39.8800000000000        18.9009238771591     
   149.250000000000        39.8950000000000        18.8938173761400     
   149.250000000000        39.9100000000000        18.8867162170159     
   149.250000000000        39.9250000000000        18.8796203937660     
   149.250000000000        39.9400000000000        18.8725299003782     
   149.250000000000        39.9550000000000        18.8654447308498     
   149.250000000000        39.9700000000000        18.8583648791870     
   149.250000000000        39.9850000000000        18.8512903394049     
   149.250000000000        40.0000000000000        18.8442211055276     
   149.250000000000        40.0150000000000        18.8371571715883     
   149.250000000000        40.0300000000000        18.8300985316289     
   149.250000000000        40.0450000000000        18.8230451797005     
   149.250000000000        40.0600000000000        18.8159971098628     
   149.250000000000        40.0750000000000        18.8089543161848     
   149.250000000000        40.0900000000000        18.8019167927440     
   149.250000000000        40.1050000000000        18.7948845336269     
   149.250000000000        40.1200000000000        18.7878575329289     
   149.250000000000        40.1350000000000        18.7808357847541     
   149.250000000000        40.1500000000000        18.7738192832156     
   149.250000000000        40.1650000000000        18.7668080224351     
   149.250000000000        40.1800000000000        18.7598019965432     
   149.250000000000        40.1950000000000        18.7528011996792     
   149.250000000000        40.2100000000000        18.7458056259912     
   149.250000000000        40.2250000000000        18.7388152696359     
   149.250000000000        40.2400000000000        18.7318301247790     
   149.250000000000        40.2550000000000        18.7248501855945     
   149.250000000000        40.2700000000000        18.7178754462653     
   149.250000000000        40.2850000000000        18.7109059009831     
   149.250000000000        40.3000000000000        18.7039415439480     
   149.250000000000        40.3150000000000        18.6969823693689     
   149.250000000000        40.3300000000000        18.6900283714631     
   149.250000000000        40.3450000000000        18.6830795444567     
   149.250000000000        40.3600000000000        18.6761358825844     
   149.250000000000        40.3750000000000        18.6691973800893     
   149.250000000000        40.3900000000000        18.6622640312232     
   149.250000000000        40.4050000000000        18.6553358302464     
   149.250000000000        40.4200000000000        18.6484127714276     
   149.250000000000        40.4350000000000        18.6414948490443     
   149.250000000000        40.4500000000000        18.6345820573821     
   149.250000000000        40.4650000000000        18.6276743907353     
   149.250000000000        40.4800000000000        18.6207718434068     
   149.250000000000        40.4950000000000        18.6138744097075     
   149.250000000000        40.5100000000000        18.6069820839572     
   149.250000000000        40.5250000000000        18.6000948604838     
   149.250000000000        40.5400000000000        18.5932127336237     
   149.250000000000        40.5550000000000        18.5863356977218     
   149.250000000000        40.5700000000000        18.5794637471310     
   149.250000000000        40.5850000000000        18.5725968762130     
   149.250000000000        40.6000000000000        18.5657350793376     
   149.250000000000        40.6150000000000        18.5588783508828     
   149.250000000000        40.6300000000000        18.5520266852352     
   149.250000000000        40.6450000000000        18.5451800767894     
   149.250000000000        40.6600000000000        18.5383385199485     
   149.250000000000        40.6750000000000        18.5315020091237     
   149.250000000000        40.6900000000000        18.5246705387345     
   149.250000000000        40.7050000000000        18.5178441032086     
   149.250000000000        40.7200000000000        18.5110226969820     
   149.250000000000        40.7350000000000        18.5042063144987     
   149.250000000000        40.7500000000000        18.4973949502112     
   149.265000000000        39.2500000000000        19.2023718769742     
   149.265000000000        39.2650000000000        19.1950361943522     
   149.265000000000        39.2800000000000        19.1877061143391     
   149.265000000000        39.2950000000000        19.1803816305189     
   149.265000000000        39.3100000000000        19.1730627364853     
   149.265000000000        39.3250000000000        19.1657494258421     
   149.265000000000        39.3400000000000        19.1584416922023     
   149.265000000000        39.3550000000000        19.1511395291892     
   149.265000000000        39.3700000000000        19.1438429304353     
   149.265000000000        39.3850000000000        19.1365518895833     
   149.265000000000        39.4000000000000        19.1292664002853     
   149.265000000000        39.4150000000000        19.1219864562029     
   149.265000000000        39.4300000000000        19.1147120510078     
   149.265000000000        39.4450000000000        19.1074431783810     
   149.265000000000        39.4600000000000        19.1001798320132     
   149.265000000000        39.4750000000000        19.0929220056045     
   149.265000000000        39.4900000000000        19.0856696928650     
   149.265000000000        39.5050000000000        19.0784228875140     
   149.265000000000        39.5200000000000        19.0711815832803     
   149.265000000000        39.5350000000000        19.0639457739026     
   149.265000000000        39.5500000000000        19.0567154531287     
   149.265000000000        39.5650000000000        19.0494906147160     
   149.265000000000        39.5800000000000        19.0422712524315     
   149.265000000000        39.5950000000000        19.0350573600515     
   149.265000000000        39.6100000000000        19.0278489313618     
   149.265000000000        39.6250000000000        19.0206459601575     
   149.265000000000        39.6400000000000        19.0134484402432     
   149.265000000000        39.6550000000000        19.0062563654328     
   149.265000000000        39.6700000000000        18.9990697295498     
   149.265000000000        39.6850000000000        18.9918885264266     
   149.265000000000        39.7000000000000        18.9847127499053     
   149.265000000000        39.7150000000000        18.9775423938371     
   149.265000000000        39.7300000000000        18.9703774520825     
   149.265000000000        39.7450000000000        18.9632179185115     
   149.265000000000        39.7600000000000        18.9560637870030     
   149.265000000000        39.7750000000000        18.9489150514454     
   149.265000000000        39.7900000000000        18.9417717057361     
   149.265000000000        39.8050000000000        18.9346337437819     
   149.265000000000        39.8200000000000        18.9275011594987     
   149.265000000000        39.8350000000000        18.9203739468116     
   149.265000000000        39.8500000000000        18.9132520996547     
   149.265000000000        39.8650000000000        18.9061356119714     
   149.265000000000        39.8800000000000        18.8990244777141     
   149.265000000000        39.8950000000000        18.8919186908444     
   149.265000000000        39.9100000000000        18.8848182453330     
   149.265000000000        39.9250000000000        18.8777231351594     
   149.265000000000        39.9400000000000        18.8706333543124     
   149.265000000000        39.9550000000000        18.8635488967899     
   149.265000000000        39.9700000000000        18.8564697565984     
   149.265000000000        39.9850000000000        18.8493959277539     
   149.265000000000        40.0000000000000        18.8423274042810     
   149.265000000000        40.0150000000000        18.8352641802134     
   149.265000000000        40.0300000000000        18.8282062495938     
   149.265000000000        40.0450000000000        18.8211536064737     
   149.265000000000        40.0600000000000        18.8141062449136     
   149.265000000000        40.0750000000000        18.8070641589829     
   149.265000000000        40.0900000000000        18.8000273427598     
   149.265000000000        40.1050000000000        18.7929957903314     
   149.265000000000        40.1200000000000        18.7859694957936     
   149.265000000000        40.1350000000000        18.7789484532513     
   149.265000000000        40.1500000000000        18.7719326568179     
   149.265000000000        40.1650000000000        18.7649221006159     
   149.265000000000        40.1800000000000        18.7579167787765     
   149.265000000000        40.1950000000000        18.7509166854395     
   149.265000000000        40.2100000000000        18.7439218147535     
   149.265000000000        40.2250000000000        18.7369321608760     
   149.265000000000        40.2400000000000        18.7299477179731     
   149.265000000000        40.2550000000000        18.7229684802196     
   149.265000000000        40.2700000000000        18.7159944417988     
   149.265000000000        40.2850000000000        18.7090255969030     
   149.265000000000        40.3000000000000        18.7020619397330     
   149.265000000000        40.3150000000000        18.6951034644981     
   149.265000000000        40.3300000000000        18.6881501654163     
   149.265000000000        40.3450000000000        18.6812020367143     
   149.265000000000        40.3600000000000        18.6742590726273     
   149.265000000000        40.3750000000000        18.6673212673991     
   149.265000000000        40.3900000000000        18.6603886152820     
   149.265000000000        40.4050000000000        18.6534611105368     
   149.265000000000        40.4200000000000        18.6465387474329     
   149.265000000000        40.4350000000000        18.6396215202483     
   149.265000000000        40.4500000000000        18.6327094232692     
   149.265000000000        40.4650000000000        18.6258024507905     
   149.265000000000        40.4800000000000        18.6189005971156     
   149.265000000000        40.4950000000000        18.6120038565561     
   149.265000000000        40.5100000000000        18.6051122234322     
   149.265000000000        40.5250000000000        18.5982256920725     
   149.265000000000        40.5400000000000        18.5913442568140     
   149.265000000000        40.5550000000000        18.5844679120020     
   149.265000000000        40.5700000000000        18.5775966519901     
   149.265000000000        40.5850000000000        18.5707304711405     
   149.265000000000        40.6000000000000        18.5638693638236     
   149.265000000000        40.6150000000000        18.5570133244181     
   149.265000000000        40.6300000000000        18.5501623473108     
   149.265000000000        40.6450000000000        18.5433164268973     
   149.265000000000        40.6600000000000        18.5364755575809     
   149.265000000000        40.6750000000000        18.5296397337735     
   149.265000000000        40.6900000000000        18.5228089498953     
   149.265000000000        40.7050000000000        18.5159832003744     
   149.265000000000        40.7200000000000        18.5091624796473     
   149.265000000000        40.7350000000000        18.5023467821588     
   149.265000000000        40.7500000000000        18.4955361023617     
   149.280000000000        39.2500000000000        19.2004423781924     
   149.280000000000        39.2650000000000        19.1931074326767     
   149.280000000000        39.2800000000000        19.1857780892070     
   149.280000000000        39.2950000000000        19.1784543413679     
   149.280000000000        39.3100000000000        19.1711361827538     
   149.280000000000        39.3250000000000        19.1638236069689     
   149.280000000000        39.3400000000000        19.1565166076271     
   149.280000000000        39.3550000000000        19.1492151783522     
   149.280000000000        39.3700000000000        19.1419193127775     
   149.280000000000        39.3850000000000        19.1346290045462     
   149.280000000000        39.4000000000000        19.1273442473110     
   149.280000000000        39.4150000000000        19.1200650347343     
   149.280000000000        39.4300000000000        19.1127913604882     
   149.280000000000        39.4450000000000        19.1055232182546     
   149.280000000000        39.4600000000000        19.0982606017246     
   149.280000000000        39.4750000000000        19.0910035045991     
   149.280000000000        39.4900000000000        19.0837519205888     
   149.280000000000        39.5050000000000        19.0765058434135     
   149.280000000000        39.5200000000000        19.0692652668029     
   149.280000000000        39.5350000000000        19.0620301844961     
   149.280000000000        39.5500000000000        19.0548005902415     
   149.280000000000        39.5650000000000        19.0475764777973     
   149.280000000000        39.5800000000000        19.0403578409311     
   149.280000000000        39.5950000000000        19.0331446734197     
   149.280000000000        39.6100000000000        19.0259369690495     
   149.280000000000        39.6250000000000        19.0187347216164     
   149.280000000000        39.6400000000000        19.0115379249256     
   149.280000000000        39.6550000000000        19.0043465727916     
   149.280000000000        39.6700000000000        18.9971606590384     
   149.280000000000        39.6850000000000        18.9899801774991     
   149.280000000000        39.7000000000000        18.9828051220164     
   149.280000000000        39.7150000000000        18.9756354864422     
   149.280000000000        39.7300000000000        18.9684712646376     
   149.280000000000        39.7450000000000        18.9613124504731     
   149.280000000000        39.7600000000000        18.9541590378283     
   149.280000000000        39.7750000000000        18.9470110205921     
   149.280000000000        39.7900000000000        18.9398683926628     
   149.280000000000        39.8050000000000        18.9327311479475     
   149.280000000000        39.8200000000000        18.9255992803629     
   149.280000000000        39.8350000000000        18.9184727838346     
   149.280000000000        39.8500000000000        18.9113516522974     
   149.280000000000        39.8650000000000        18.9042358796953     
   149.280000000000        39.8800000000000        18.8971254599812     
   149.280000000000        39.8950000000000        18.8900203871175     
   149.280000000000        39.9100000000000        18.8829206550752     
   149.280000000000        39.9250000000000        18.8758262578347     
   149.280000000000        39.9400000000000        18.8687371893854     
   149.280000000000        39.9550000000000        18.8616534437255     
   149.280000000000        39.9700000000000        18.8545750148624     
   149.280000000000        39.9850000000000        18.8475018968126     
   149.280000000000        40.0000000000000        18.8404340836013     
   149.280000000000        40.0150000000000        18.8333715692628     
   149.280000000000        40.0300000000000        18.8263143478404     
   149.280000000000        40.0450000000000        18.8192624133862     
   149.280000000000        40.0600000000000        18.8122157599613     
   149.280000000000        40.0750000000000        18.8051743816357     
   149.280000000000        40.0900000000000        18.7981382724882     
   149.280000000000        40.1050000000000        18.7911074266064     
   149.280000000000        40.1200000000000        18.7840818380870     
   149.280000000000        40.1350000000000        18.7770615010353     
   149.280000000000        40.1500000000000        18.7700464095654     
   149.280000000000        40.1650000000000        18.7630365578004     
   149.280000000000        40.1800000000000        18.7560319398719     
   149.280000000000        40.1950000000000        18.7490325499204     
   149.280000000000        40.2100000000000        18.7420383820953     
   149.280000000000        40.2250000000000        18.7350494305544     
   149.280000000000        40.2400000000000        18.7280656894645     
   149.280000000000        40.2550000000000        18.7210871530009     
   149.280000000000        40.2700000000000        18.7141138153477     
   149.280000000000        40.2850000000000        18.7071456706976     
   149.280000000000        40.3000000000000        18.7001827132519     
   149.280000000000        40.3150000000000        18.6932249372207     
   149.280000000000        40.3300000000000        18.6862723368225     
   149.280000000000        40.3450000000000        18.6793249062846     
   149.280000000000        40.3600000000000        18.6723826398427     
   149.280000000000        40.3750000000000        18.6654455317412     
   149.280000000000        40.3900000000000        18.6585135762330     
   149.280000000000        40.4050000000000        18.6515867675795     
   149.280000000000        40.4200000000000        18.6446651000508     
   149.280000000000        40.4350000000000        18.6377485679251     
   149.280000000000        40.4500000000000        18.6308371654895     
   149.280000000000        40.4650000000000        18.6239308870395     
   149.280000000000        40.4800000000000        18.6170297268787     
   149.280000000000        40.4950000000000        18.6101336793197     
   149.280000000000        40.5100000000000        18.6032427386831     
   149.280000000000        40.5250000000000        18.5963568992980     
   149.280000000000        40.5400000000000        18.5894761555020     
   149.280000000000        40.5550000000000        18.5826005016410     
   149.280000000000        40.5700000000000        18.5757299320693     
   149.280000000000        40.5850000000000        18.5688644411495     
   149.280000000000        40.6000000000000        18.5620040232525     
   149.280000000000        40.6150000000000        18.5551486727576     
   149.280000000000        40.6300000000000        18.5482983840525     
   149.280000000000        40.6450000000000        18.5414531515328     
   149.280000000000        40.6600000000000        18.5346129696028     
   149.280000000000        40.6750000000000        18.5277778326749     
   149.280000000000        40.6900000000000        18.5209477351696     
   149.280000000000        40.7050000000000        18.5141226715158     
   149.280000000000        40.7200000000000        18.5073026361506     
   149.280000000000        40.7350000000000        18.5004876235191     
   149.280000000000        40.7500000000000        18.4936776280749     
   149.295000000000        39.2500000000000        19.1985132671326     
   149.295000000000        39.2650000000000        19.1911790585752     
   149.295000000000        39.2800000000000        19.1838504515009     
   149.295000000000        39.2950000000000        19.1765274394950     
   149.295000000000        39.3100000000000        19.1692100161525     
   149.295000000000        39.3250000000000        19.1618981750783     
   149.295000000000        39.3400000000000        19.1545919098870     
   149.295000000000        39.3550000000000        19.1472912142029     
   149.295000000000        39.3700000000000        19.1399960816600     
   149.295000000000        39.3850000000000        19.1327065059021     
   149.295000000000        39.4000000000000        19.1254224805826     
   149.295000000000        39.4150000000000        19.1181439993646     
   149.295000000000        39.4300000000000        19.1108710559207     
   149.295000000000        39.4450000000000        19.1036036439334     
   149.295000000000        39.4600000000000        19.0963417570946     
   149.295000000000        39.4750000000000        19.0890853891059     
   149.295000000000        39.4900000000000        19.0818345336783     
   149.295000000000        39.5050000000000        19.0745891845324     
   149.295000000000        39.5200000000000        19.0673493353986     
   149.295000000000        39.5350000000000        19.0601149800166     
   149.295000000000        39.5500000000000        19.0528861121354     
   149.295000000000        39.5650000000000        19.0456627255138     
   149.295000000000        39.5800000000000        19.0384448139200     
   149.295000000000        39.5950000000000        19.0312323711316     
   149.295000000000        39.6100000000000        19.0240253909355     
   149.295000000000        39.6250000000000        19.0168238671282     
   149.295000000000        39.6400000000000        19.0096277935155     
   149.295000000000        39.6550000000000        19.0024371639126     
   149.295000000000        39.6700000000000        18.9952519721440     
   149.295000000000        39.6850000000000        18.9880722120437     
   149.295000000000        39.7000000000000        18.9808978774548     
   149.295000000000        39.7150000000000        18.9737289622297     
   149.295000000000        39.7300000000000        18.9665654602304     
   149.295000000000        39.7450000000000        18.9594073653278     
   149.295000000000        39.7600000000000        18.9522546714023     
   149.295000000000        39.7750000000000        18.9451073723433     
   149.295000000000        39.7900000000000        18.9379654620496     
   149.295000000000        39.8050000000000        18.9308289344292     
   149.295000000000        39.8200000000000        18.9236977833992     
   149.295000000000        39.8350000000000        18.9165720028858     
   149.295000000000        39.8500000000000        18.9094515868244     
   149.295000000000        39.8650000000000        18.9023365291598     
   149.295000000000        39.8800000000000        18.8952268238454     
   149.295000000000        39.8950000000000        18.8881224648441     
   149.295000000000        39.9100000000000        18.8810234461276     
   149.295000000000        39.9250000000000        18.8739297616770     
   149.295000000000        39.9400000000000        18.8668414054821     
   149.295000000000        39.9550000000000        18.8597583715418     
   149.295000000000        39.9700000000000        18.8526806538643     
   149.295000000000        39.9850000000000        18.8456082464663     
   149.295000000000        40.0000000000000        18.8385411433739     
   149.295000000000        40.0150000000000        18.8314793386219     
   149.295000000000        40.0300000000000        18.8244228262542     
   149.295000000000        40.0450000000000        18.8173716003235     
   149.295000000000        40.0600000000000        18.8103256548915     
   149.295000000000        40.0750000000000        18.8032849840288     
   149.295000000000        40.0900000000000        18.7962495818148     
   149.295000000000        40.1050000000000        18.7892194423377     
   149.295000000000        40.1200000000000        18.7821945596948     
   149.295000000000        40.1350000000000        18.7751749279919     
   149.295000000000        40.1500000000000        18.7681605413438     
   149.295000000000        40.1650000000000        18.7611513938741     
   149.295000000000        40.1800000000000        18.7541474797151     
   149.295000000000        40.1950000000000        18.7471487930079     
   149.295000000000        40.2100000000000        18.7401553279024     
   149.295000000000        40.2250000000000        18.7331670785570     
   149.295000000000        40.2400000000000        18.7261840391390     
   149.295000000000        40.2550000000000        18.7192062038245     
   149.295000000000        40.2700000000000        18.7122335667980     
   149.295000000000        40.2850000000000        18.7052661222528     
   149.295000000000        40.3000000000000        18.6983038643909     
   149.295000000000        40.3150000000000        18.6913467874229     
   149.295000000000        40.3300000000000        18.6843948855679     
   149.295000000000        40.3450000000000        18.6774481530538     
   149.295000000000        40.3600000000000        18.6705065841168     
   149.295000000000        40.3750000000000        18.6635701730020     
   149.295000000000        40.3900000000000        18.6566389139627     
   149.295000000000        40.4050000000000        18.6497128012611     
   149.295000000000        40.4200000000000        18.6427918291676     
   149.295000000000        40.4350000000000        18.6358759919613     
   149.295000000000        40.4500000000000        18.6289652839296     
   149.295000000000        40.4650000000000        18.6220596993687     
   149.295000000000        40.4800000000000        18.6151592325829     
   149.295000000000        40.4950000000000        18.6082638778850     
   149.295000000000        40.5100000000000        18.6013736295965     
   149.295000000000        40.5250000000000        18.5944884820470     
   149.295000000000        40.5400000000000        18.5876084295746     
   149.295000000000        40.5550000000000        18.5807334665258     
   149.295000000000        40.5700000000000        18.5738635872555     
   149.295000000000        40.5850000000000        18.5669987861268     
   149.295000000000        40.6000000000000        18.5601390575112     
   149.295000000000        40.6150000000000        18.5532843957886     
   149.295000000000        40.6300000000000        18.5464347953471     
   149.295000000000        40.6450000000000        18.5395902505832     
   149.295000000000        40.6600000000000        18.5327507559015     
   149.295000000000        40.6750000000000        18.5259163057149     
   149.295000000000        40.6900000000000        18.5190868944447     
   149.295000000000        40.7050000000000        18.5122625165202     
   149.295000000000        40.7200000000000        18.5054431663790     
   149.295000000000        40.7350000000000        18.4986288384670     
   149.295000000000        40.7500000000000        18.4918195272381     
   149.310000000000        39.2500000000000        19.1965845436780     
   149.310000000000        39.2650000000000        19.1892510719308     
   149.310000000000        39.2800000000000        19.1819232011039     
   149.310000000000        39.2950000000000        19.1746009247833     
   149.310000000000        39.3100000000000        19.1672842365648     