 variables= "x","y","f"
 zone i=          56  datapacking=point
  0.000000000000000E+000  0.000000000000000E+000   1.00000000000000     
  0.989855562526326        1.83725045440806        16.8964918397589     
  -1.17028788564008       -1.98615816912296       4.257678808836245E-002
 -0.883039381005629        1.54874247172695        1.94585815530912     
  -1.46105835666833        1.71472236619309        1.28873872757952     
   1.88310859279024      -0.370282296756374        4.53954277229743     
  -1.06660822187162       0.301802078349215       0.465424147715345     
  -1.32074857891618       -1.64883277918349       5.132479254361292E-002
   1.37863417770390        1.44929849838599        16.9104652542640     
  8.644288072567541E-002   1.26895330998168        3.87829719760094     
  0.772769128128593        1.04373546875183        6.15032297611176     
  0.439827374453083       -1.86524936032715       0.240406993445184     
 -3.949934989727288E-002  0.572182854851737        1.70349752453621     
  0.352608156451748       0.749968789576130        3.01191758103143     
 -0.332896311180900       -1.31091717795144       0.193241710213180     
   1.81169804213956       0.505899291770175        10.1512549060521     
  -1.77282391579620       0.394851356196941       0.252089130990457     
  -1.81518914233962        1.86674366194242        1.05290658877634     
 -0.974824357910411      -0.766546450120103       0.175279960678463     
  0.854289333191058       -1.45527801573160       0.548269303752810     
   1.53173204892392      -0.312155823945176        3.38575263216907     
   1.05690993687066      -0.439296669533051        1.85449656804712     
   1.23076353277588       -1.73185208505497       0.605870778603368     
  0.715422664220322        1.63473379824875        10.4872104512090     
 -0.691282427314936       0.934583593509102        1.27545268951414     
   1.68897145477348        1.14645613009394        17.0376837988966     
  -1.96585048449255      -0.675457857746009       7.126796564326303E-002
 -0.994547381464342      -0.492942396191027       0.225939101670669     
 -0.157840217978699       0.644419991269704        1.62674286492430     
  -1.54781627400379       -1.81502488863462       3.463671048717906E-002
  0.179155559595816        1.27669675299554        4.28813674145265     
 -0.641600720056040       -1.61221785503713       0.104997517171157     
  0.253061698237216        1.41814677606544        5.31859129599033     
   1.42614415427152      -0.916225512738944        1.66515571491775     
   1.56843721213187       0.197807454764671        5.84884769657110     
  0.578769759102510      -0.904653210529749       0.721889317698658     
  -1.41665873456345       -1.08832755137998       8.167671809674523E-002
 -0.256079079249097      -0.757519645072026       0.362910611511540     
   1.16982421450042        1.67641618896913        17.2229087806189     
  0.290118600815321      -0.182202869319037        1.11395387020531     
   1.33241484374240      -0.101806399053850        3.42331179863583     
  -1.88553935030276       -1.38742161886343       3.789405765977315E-002
 -0.223496865129656       0.150306335040875       0.929423729969098     
  -1.62090311567931       8.948215946038962E-002  0.216228198114788     
   1.99042570068653      -0.582436811198030        4.08772626273334     
  -1.67888486909026       0.439059680953493       0.289434810155310     
 -0.581631136772118       -1.52394217999537       0.121775838122006     
  -1.21997024201388       0.849235398463123       0.690226935420083     
 -0.767130207715927       -1.15520347341400       0.146265227134659     
   1.75168988892705        1.94976782515219        40.5063079598412     
  0.942872325581984       0.802382807381870        5.72736252800888     
 -0.490278459080489       -1.04306538944421       0.215812814073719     
  3.539282862011728E-002  -1.20000037859493       0.312045100113060     
 -0.425456590761641      -0.115453889599948       0.582217913002881     
  0.623806383767879        1.09375027981935        5.57090023848121     
  0.532073809908314      -2.995613223862525E-002   1.65221643042329     
