 variables= "x","y","fpcb"
 zone i=         132  datapacking=point
  0.000000000000000E+000  0.000000000000000E+000  0.000000000000000E+000
  -1.41692916057749        1.17704872476332       0.000000000000000E+000
  -1.23749254032869        1.93064460763158       0.000000000000000E+000
 -0.718943454924017       -1.83789745677682       0.000000000000000E+000
 -9.919466549168865E-003 -0.451646813237408       0.000000000000000E+000
   1.64716222425522       -1.00980817972918       0.000000000000000E+000
  0.219139430687339       0.881196252124322       0.000000000000000E+000
  0.894593413386036        1.53813702403943       0.000000000000000E+000
   1.24968090701348      -0.894673097534079       0.000000000000000E+000
   1.56882265950502      -4.347751520958254E-002  0.000000000000000E+000
  -1.88847052741594       -1.63568891381648       0.000000000000000E+000
 -0.251426907981505       0.249152759795193       0.000000000000000E+000
   1.97065176685740        1.95318730971504       0.000000000000000E+000
   1.96679047237136        1.18715588049737       0.000000000000000E+000
 -0.231687936825083        1.97218495027915       0.000000000000000E+000
  -1.99872957585182       0.437616745650557       0.000000000000000E+000
  -1.98294806167341      -0.187539764560103       0.000000000000000E+000
  -1.98777106705764        1.31925773187179       0.000000000000000E+000
   1.91523448781819       0.502848636988435       0.000000000000000E+000
 -9.395736065738025E-002   1.41254675773647       0.000000000000000E+000
  0.664271789404490        1.99690364398588       0.000000000000000E+000
  -1.02845742460252      -0.990871862735836       0.000000000000000E+000
  -1.46045934987762      -0.780142191331562       0.000000000000000E+000
 -0.644041708566308       -1.29225969933100       0.000000000000000E+000
  -1.55601346598086       -1.98811908347206       0.000000000000000E+000
 -0.581030092666435      -0.830393270841983       0.000000000000000E+000
  -1.00123242391854      -0.516235720801866       0.000000000000000E+000
 -0.163884145533618       -1.27184801555605       0.000000000000000E+000
  -1.50675903373640      -0.289680909878091       0.000000000000000E+000
  -1.40381748358861       -1.29757836044393       0.000000000000000E+000
   1.56324409598695        1.93425230300033       0.000000000000000E+000
   1.08687671279109       -1.99712226609070       0.000000000000000E+000
   1.47359429915353       -1.98270107388315       0.000000000000000E+000
   1.87807486368067       -1.99416759765593       0.000000000000000E+000
  0.700890786304231       -1.96050131556261       0.000000000000000E+000
   1.07289558281386       0.249480594093972       0.000000000000000E+000
  0.948072166767311       -1.63633268946209       0.000000000000000E+000
  0.547747514067699       -1.57071326894629       0.000000000000000E+000
  0.750273913490389       0.513753671803685       0.000000000000000E+000
   1.34965178194593       -1.55712959793357       0.000000000000000E+000
  0.602271060851204       0.893319363297543       0.000000000000000E+000
  -1.99475541489765        1.98897025861852       0.000000000000000E+000
   1.60097139485463       0.912056511929016       0.000000000000000E+000
   1.61099748796550       0.585191053812545       0.000000000000000E+000
   1.26038933750258        1.99881191850369       0.000000000000000E+000
   1.57970254262681        1.24735009637362       0.000000000000000E+000
   1.32261026998383       0.734521510031970       0.000000000000000E+000
   1.87851329141785        1.64422314166101       0.000000000000000E+000
   1.97310589496468      -0.352444642117993       0.000000000000000E+000
   1.31106353839735        1.07808096217672       0.000000000000000E+000
   1.57132133850022        1.55732184603764       0.000000000000000E+000
   1.99118876091750       0.835484383122486       0.000000000000000E+000
  -1.85059599759392       -1.06943116825222       0.000000000000000E+000
   1.63053936923785       0.260911052454403       0.000000000000000E+000
  0.682585679348682      -0.355308924490271       0.000000000000000E+000
  0.986915574173334       0.922757749936339       0.000000000000000E+000
  -1.97751081892921       -1.91129816522301       0.000000000000000E+000
   1.99888072217132       -1.48288529685344       0.000000000000000E+000
  0.983349534043954        1.86718999808522       0.000000000000000E+000
   1.99798078604295       -1.20821624267066       0.000000000000000E+000
  -1.26419458571390       -1.87913227043728       0.000000000000000E+000
  0.480203272790732        1.73731869369130       0.000000000000000E+000
  -1.48973199287372       -1.71056713594478       0.000000000000000E+000
 -0.944547674941644       0.531207477041373       0.000000000000000E+000
 -0.696022162165063       0.345346989548676       0.000000000000000E+000
 -0.975931476470986       -1.94919430984265       0.000000000000000E+000
   1.23618199329365        1.71225505327770       0.000000000000000E+000
  -1.13796377486152       0.755426130885667       0.000000000000000E+000
 -0.922225312708531       0.182403729594247       0.000000000000000E+000
  -1.70927177920951       -1.40459837122804       0.000000000000000E+000
 -0.613536780266133       6.911894829878840E-002  0.000000000000000E+000
 -0.853618801473948       0.815776361498630       0.000000000000000E+000
 -0.339953963232311        1.74230108976409       0.000000000000000E+000
 -0.521780271850551        1.89322418332155       0.000000000000000E+000
   1.99575553531167      -3.529255255880348E-002  0.000000000000000E+000
 -0.557799576512674        1.65508460318501       0.000000000000000E+000
  -1.99465049780263       -1.41172605840374       0.000000000000000E+000
 -0.855222905688678        1.64144729215532       0.000000000000000E+000
 -0.368651733120805        1.48913058472807       0.000000000000000E+000
  -1.16623507003799        1.70672863889281       0.000000000000000E+000
  0.116278634250279        1.21794333085756       0.000000000000000E+000
  0.375863706524508        1.95019653124856       0.000000000000000E+000
  -1.54799159505549        1.99265329465506       0.000000000000000E+000
   1.99930898962923       0.246751418527044       0.000000000000000E+000
  0.341033017101861        1.35215346833615       0.000000000000000E+000
  -1.41061005293017        1.70405266560906       0.000000000000000E+000
  0.580461730775120        1.20112553447536       0.000000000000000E+000
 -0.775026181642552        1.98559617555318       0.000000000000000E+000
  -1.02106691365864        1.47390866756341       0.000000000000000E+000
  0.332360090776599        1.10938783024212       0.000000000000000E+000
   1.96362005985212        1.40725903623908       0.000000000000000E+000
   1.81461192436264      -0.535120850429837       0.000000000000000E+000
   1.21639021478647        1.40000871451255       0.000000000000000E+000
   1.13712293615057      -0.490611052159701       0.000000000000000E+000
  0.487615963647707      -0.924868343300608       0.000000000000000E+000
  0.637466547537891       -1.09346063243871       0.000000000000000E+000
   1.25119959257504      -0.166029444873366       0.000000000000000E+000
   1.77937188821032        1.03546296255916       0.000000000000000E+000
   1.60295625530562      -0.473891178112991       0.000000000000000E+000
   1.73813998410838      -0.304074874373577       0.000000000000000E+000
  0.978194583779654      -0.340386617073970       0.000000000000000E+000
   1.39747493505620      -0.395436482009038       0.000000000000000E+000
  0.909222799442718       0.104693594974214       0.000000000000000E+000
  0.448901112699178      -0.705731478533783       0.000000000000000E+000
  0.687860716066245      -0.825817036883271       0.000000000000000E+000
   1.05082684082967      -6.367108371411856E-002  0.000000000000000E+000
  0.718897293000895       -1.30746284758629       0.000000000000000E+000
  0.655187176782797       0.299297579769085       0.000000000000000E+000
  0.520755611361338       0.486030647455914       0.000000000000000E+000
   1.32317153299205      -0.606528021054416       0.000000000000000E+000
   1.77886761845543        1.92021949836316       0.000000000000000E+000
 -0.320741883962186       0.722943450898454       0.000000000000000E+000
 -0.405098364735383       0.898459168159941       0.000000000000000E+000
  0.150937564985330        1.85704644308760       0.000000000000000E+000
  0.950891323153411        1.19426755405627       0.000000000000000E+000
 -0.551105844996462        1.04811517274859       0.000000000000000E+000
   1.49686277184556        1.73845947402490       0.000000000000000E+000
  0.199431524761595       0.148993201445051       0.000000000000000E+000
 -0.169803622262038       0.602357461754982       0.000000000000000E+000
  -1.74861099277229       0.559202856084961       0.000000000000000E+000
  2.623326891256417E-002   1.71198057694324       0.000000000000000E+000
 -0.219431440840475        1.15919148456385       0.000000000000000E+000
   1.77918155543060       -1.72303591832492       0.000000000000000E+000
 -0.485745331920992       0.610902132020564       0.000000000000000E+000
  5.278960202907834E-002  0.388393447749668       0.000000000000000E+000
  -1.61467490179421       0.991805929247868       0.000000000000000E+000
  -1.86984661292491       0.737415612802382       0.000000000000000E+000
 -1.784593225595321E-002   1.98523046484223       0.000000000000000E+000
 -0.590418637705745       0.830959811226570       0.000000000000000E+000
 -4.125290576766627E-002   1.02976269310505       0.000000000000000E+000
   1.45143054778389       0.173901949888130       0.000000000000000E+000
 -4.014816660052589E-002  0.834710978443718       0.000000000000000E+000
