 variables= "x","y","f"
 zone i=          72  datapacking=point
  0.000000000000000E+000  0.000000000000000E+000   1.00000000000000     
  0.505246612792050      -0.536064602411727       0.999525163340969     
  0.862919810916028       0.446734357582768       0.258184154298908     
  -1.58279423152373      -0.355370394802367      -0.359160576238753     
   1.13228037831466       0.867239354959892      -0.415710083272883     
   1.39124794181522      -0.477175228952870       0.610525246252037     
   1.74641161922109      -0.616467375583882       0.426710234001082     
 -0.679634036066378      -0.685491269577797       0.204224084653906     
  0.151319234491991       -1.44613397460544       0.272491509740877     
 -0.890301940159423        1.69952828454381       0.690058575388392     
   1.65303825428961      -0.197135723340240       0.114641185093603     
  -1.32972208424155       -1.26010217937056      -0.851598874675833     
   1.83980343661727       -1.86127233624852       0.999769552025900     
  -1.69124639953983       0.807112299895743       0.633959397252504     
 -0.947251126364070       -1.06075870955086      -0.423416732461194     
   1.29679810660982      -0.904025754001933       0.923851490468319     
 -0.770560211102483        1.25042011781940       0.887059606235696     
   1.25087006984628       0.261624450706878       5.826878290385029E-002
  0.274672392292260      -0.793349920067079       0.868475530789055     
   1.20762966913838        1.49183711545644      -0.903844127969565     
 -0.213221166948349        1.92611783526761      -0.141622597097485     
  -1.63632187923066        1.16386582776224       0.890453288234599     
  0.760711004354226        1.88169960220615      -0.877974415818119     
  0.593793843572076       0.542115732190807       0.421307696568116     
 -0.332223194807802        1.14192783842210       0.689712325716335     
  -1.42171397783611      -0.294875939409818      -0.145277646566603     
  -1.50738885855330       0.358114521498187       0.409149692242878     
 -0.712714682169126        1.59132624311718       0.638220653674970     
 -0.454818103636167       -1.00236710361329       0.113366871565113     
 -0.860262157914813       -1.71348785797696      -0.843063196905996     
 -0.116228907818017       0.958866760199259       0.665496247301764     
   1.58299984556086        1.75814573717650      -0.980155299161252     
 -4.272238926837124E-002   1.94413715509166      -0.324628035897470     
  -1.02111188940566       1.457407673565569E-002  0.534789418364928     
  -1.77118719392641      -0.405604941973320      -0.569580849198712     
 -5.140149116872106E-003  -1.73465409676507      -0.168194628605682     
   1.49683775682110        1.04887739516753      -0.827656332732269     
  -1.97176476629781       -1.82747856831742      -0.791430457125406     
  0.943939055020384       -1.58722728516304       0.800127709062484     
  0.220317458638530      -0.528981718874890       0.952740199138490     
  0.340316090692919       0.221152283707168       0.846474217685886     
   1.66436728882427       -1.40342686730575       0.966147786753100     
  0.570319046241520       -1.19817567970326       0.809288404459061     
   1.46488626871743        1.30360476013028      -0.931201267507053     
   1.97732117581981       0.389428893638476      -0.714531171617586     
  0.893340061518832        1.41310554332288      -0.671068668679679     
  0.450921007089598       -1.31541503343746       0.649025126791353     
   1.78429575752813      -6.779091954065786E-002 -0.145193469394562     
  -1.87641448380211       0.694353323160429       0.379018255037422     
  -1.79963770313337      -0.820599009903897      -0.867144642180349     
  0.418700930041387       0.192440591905004       0.818993543179146     
  -1.25966593092898       -1.36928166598152      -0.871450199663622     
 -0.501075764185704      -0.108509437443167       0.819885571814617     
   1.06751868510219        1.80301168194871      -0.963487007419607     
  9.639968985894098E-002 -0.726323434754082       0.808072431258127     
 -0.542806896426542      -0.951770698375229       7.614495724088470E-002
   1.88956222489149       0.491280888514075      -0.724319432872142     
 -0.155855260851034       -1.63365602869893      -0.216975378672864     
 -0.417115565544564       0.607914414604616       0.981853052044776     
  -1.16553545478994       9.080571091246226E-002  0.475969940489006     
  -1.15438861402490       0.988484719795462       0.986269485668319     
 -0.626337324483211        1.51902363277264       0.627322303810830     
  0.754221232602368       -1.99515607979106       0.323911979128462     
 -0.254447832995526      -0.250204875040742       0.875342444080699     
  -1.91317981086777       0.891172235445506       0.521654226602771     
  -1.46096855151445        1.36838086683197       0.995716821422841     
  3.676599264499858E-002  -1.51009505940950       9.731301231768195E-002
  -1.28522921351980        1.63515344066584       0.939398692496126     
  -1.07274370563369       5.204631097970980E-002  0.522771568448754     
  0.988088733242069       0.714179643079761      -0.131093629855092     
  0.666494530961255       -1.90949931301235       0.321952947683961     
   1.37921568512260       -1.12396785279796       0.967600751405858     
