 variables= "x","y","fpcb"
 zone i=         156  datapacking=point
  0.000000000000000E+000  0.000000000000000E+000  0.000000000000000E+000
  -1.21635730392935      -0.938947710494114       0.000000000000000E+000
  0.682792909330751      -0.166897251179885       0.000000000000000E+000
  -1.39048184715219       0.776081251075717       0.000000000000000E+000
   1.08068604029349        1.77940521598349       0.000000000000000E+000
 -0.182447907788322       0.281646979675275       0.000000000000000E+000
 -0.583804058115398       -1.99557614546425       0.000000000000000E+000
  5.195543077857412E-003  -1.46645863194793       0.000000000000000E+000
  0.412401766357474        1.59340936551411       0.000000000000000E+000
  -1.85442171629265        1.15847920738297       0.000000000000000E+000
   1.46148712585261      -0.349052202214083       0.000000000000000E+000
   1.75957891773440      -0.702180619689466       0.000000000000000E+000
  -1.98566464655682       -1.95196930524737       0.000000000000000E+000
   1.97970285500618       -1.99761546212065       0.000000000000000E+000
   1.95366516373751        1.96107919676700       0.000000000000000E+000
  -1.98331451989335       -1.35346130152652       0.000000000000000E+000
  -1.99100941148087        1.96328043882436       0.000000000000000E+000
   1.97383091503932        1.39281767481411       0.000000000000000E+000
   1.96562172151901       -1.42087661181353       0.000000000000000E+000
  -1.36621683896399       -1.98907289895538       0.000000000000000E+000
 -0.386934982023746      -0.457751124440464       0.000000000000000E+000
  0.107333000552915      -0.482504902527879       0.000000000000000E+000
 -0.702584633250801      -5.793940293022892E-002  0.000000000000000E+000
  0.998796292130771       0.932519558979764       0.000000000000000E+000
  0.435087407868211       0.940242651590759       0.000000000000000E+000
 -0.355056482923123        1.00976928571408       0.000000000000000E+000
 -0.641889936252709       0.461028670192821       0.000000000000000E+000
   1.50332738801754       0.844995482737444       0.000000000000000E+000
  0.288279851341201       0.428649418767506       0.000000000000000E+000
 -0.853112110460408       0.908159849887609       0.000000000000000E+000
 -0.935691940630925        1.82491291285448       0.000000000000000E+000
 -0.569167162899677        1.94259636877185       0.000000000000000E+000
  -1.22051625483110        1.57380621709660       0.000000000000000E+000
   1.31275073068258       -1.97784205940759       0.000000000000000E+000
  0.823515158006496       -1.80603884377485       0.000000000000000E+000
  -1.38021686589910        1.94454284932183       0.000000000000000E+000
  0.830930808141561       -1.02807738339528       0.000000000000000E+000
   1.49800193819637       -1.64245537601551       0.000000000000000E+000
 -0.632241881542408        1.55102030808134       0.000000000000000E+000
   1.12585574328077       -1.54442268358865       0.000000000000000E+000
  0.452703574281956       -1.91769562226657       0.000000000000000E+000
  -1.60051305327158        1.62065632961979       0.000000000000000E+000
  -1.99762789428024      -0.296508283712813       0.000000000000000E+000
  -1.93986467140825      -0.610266296468146       0.000000000000000E+000
  -1.99490500837709       0.119533109727858       0.000000000000000E+000
  -1.98221660651273       0.461395232861112       0.000000000000000E+000
  0.713675009507880      -0.744550488935847       0.000000000000000E+000
  -1.69036890771830       0.236532438556395       0.000000000000000E+000
   1.99217627294682       4.416612037946788E-002  0.000000000000000E+000
  -1.19869827512056      -0.518958047844714       0.000000000000000E+000
  -1.37711114512576       0.284686088748525       0.000000000000000E+000
  -1.66777864341578      -0.456683558778318       0.000000000000000E+000
   1.99384808071684       0.546623836412239       0.000000000000000E+000
  -1.25590649340867       -1.39942251556776       0.000000000000000E+000
  -1.97934502403858      -0.917434704389174       0.000000000000000E+000
   1.31221965988355        1.98889698477544       0.000000000000000E+000
 -0.439851288158720      -0.947072353415755       0.000000000000000E+000
 -6.807263863119917E-002  -1.16359495732934       0.000000000000000E+000
  0.166377796267304      -0.880538935129374       0.000000000000000E+000
 -0.561942052782617      -0.710713305184193       0.000000000000000E+000
 -0.193830500559777      -0.828142052319966       0.000000000000000E+000
   1.36306307918139       0.378757552580816       0.000000000000000E+000
 -0.156397557605211       0.824329073968349       0.000000000000000E+000
  0.931503246942342       0.601284608043279       0.000000000000000E+000
   1.60451090984008       0.236356404302076       0.000000000000000E+000
   1.16000503754632        1.20044011805131       0.000000000000000E+000
  0.526397144658731        1.99449847359600       0.000000000000000E+000
  -1.76055050534342       -1.79421482446259       0.000000000000000E+000
   1.16465827616419      -0.845240990725443       0.000000000000000E+000
   1.73226677338168        1.79551602163944       0.000000000000000E+000
  -1.05433263311950        1.10976368816099       0.000000000000000E+000
  0.196262452643122       -1.24496124376838       0.000000000000000E+000
  -1.97953677187231        1.67819229123865       0.000000000000000E+000
 -0.646028705937899       -1.34721364268327       0.000000000000000E+000
  0.890765947653612       0.332804833628979       0.000000000000000E+000
  -1.12536763986160       0.182270393564032       0.000000000000000E+000
 -0.997620685774452      -0.369422615869695       0.000000000000000E+000
   1.08799012374227       0.217008430248521       0.000000000000000E+000
  -1.98041569218028        1.45261030879397       0.000000000000000E+000
 -0.762340836057255       -1.14423636956804       0.000000000000000E+000
  0.713028921434449       0.495085715582200       0.000000000000000E+000
   1.40408758795790       -1.03901718575822       0.000000000000000E+000
  0.218767172533130      -2.669088398150077E-002  0.000000000000000E+000
  0.559329467919869      -0.571891706313798       0.000000000000000E+000
  -1.48310791565061       -1.08361741661720       0.000000000000000E+000
 -0.449748247921850       -1.46237750075747       0.000000000000000E+000
   1.21885310638038      -0.289610610544677       0.000000000000000E+000
  0.503079549308826      -2.476603435576075E-002  0.000000000000000E+000
  8.625757404383583E-002 -0.212935371064878       0.000000000000000E+000
   1.28090668598946       7.942172792823010E-002  0.000000000000000E+000
   1.79106507899582       -1.88212294114818       0.000000000000000E+000
  -1.79887522407735        1.90233204250758       0.000000000000000E+000
   1.83333940664062       -1.68748992331253       0.000000000000000E+000
   1.60523108268940       -1.94296652108402       0.000000000000000E+000
 -9.018573432560273E-002   1.26425346682430       0.000000000000000E+000
   1.65224386383507        1.42879893483102       0.000000000000000E+000
  -1.58747503454932        1.95084603151205       0.000000000000000E+000
   1.52528737550729        1.57708017653196       0.000000000000000E+000
  0.634086677415940        1.17411075754666       0.000000000000000E+000
   1.80892770169681        1.29452443642943       0.000000000000000E+000
  0.497267443639538       -1.39725085193633       0.000000000000000E+000
  4.507997603366887E-002   1.12663965476142       0.000000000000000E+000
 -0.308905027860143        1.25729068154560       0.000000000000000E+000
   1.98719847835562        1.70582138868652       0.000000000000000E+000
  -1.60115134806379       -1.58637226974227       0.000000000000000E+000
 -0.198201156955627      -5.938851860914540E-002  0.000000000000000E+000
 -0.892583642290569       0.523526709785980       0.000000000000000E+000
 -0.536448792169004       7.538807737089925E-002  0.000000000000000E+000
 -0.603964979300264       0.261120096088669       0.000000000000000E+000
  0.700276383300290       -1.31794992566877       0.000000000000000E+000
   1.97675159922285       -1.80210920874120       0.000000000000000E+000
   1.73221410579456       -1.37307872956774       0.000000000000000E+000
   1.99703367599130      -0.479763642759829       0.000000000000000E+000
   1.78178914888764       -1.19063269353579       0.000000000000000E+000
   1.55320455661257       -1.39420263903687       0.000000000000000E+000
   1.99202362103469      -0.806395437180618       0.000000000000000E+000
 -6.900000052130673E-002  -1.97667033405346       0.000000000000000E+000
   1.68976104958001       -1.56041636090309       0.000000000000000E+000
  0.466502083281251      -0.396537476775291       0.000000000000000E+000
  4.262500160660343E-002  0.174842019924903       0.000000000000000E+000
  0.734221505157094        1.38929949697664       0.000000000000000E+000
  -1.99683175503797       -1.74677070379230       0.000000000000000E+000
   1.72150795701723        1.97366469501626       0.000000000000000E+000
 -0.156125137496181       -1.80629170669719       0.000000000000000E+000
  0.684914753335494       0.261985068265171       0.000000000000000E+000
   1.60147327104894       -1.18284300954115       0.000000000000000E+000
 -0.770422541931133        1.16274424879473       0.000000000000000E+000
  0.205589409516198       0.872115515926148       0.000000000000000E+000
   1.01595804255374       -1.08202398721478       0.000000000000000E+000
 -0.138171056349205      -0.621119585856621       0.000000000000000E+000
  5.206266957304972E-002  -1.81702632890468       0.000000000000000E+000
   1.96586148480732      -0.272649825042154       0.000000000000000E+000
 -5.409112314198672E-002   1.84010620168968       0.000000000000000E+000
  0.110932605368349        1.84431621891125       0.000000000000000E+000
 -0.108044444677694        1.68245719029733       0.000000000000000E+000
  -1.75779522532482       -1.98345148761917       0.000000000000000E+000
 -0.230511504645570        1.82196052208264       0.000000000000000E+000
  0.279291926641438        1.79602594176881       0.000000000000000E+000
  0.108382707709094        1.67727744314405       0.000000000000000E+000
 -0.248443634769243        1.59239083114604       0.000000000000000E+000
 -6.276734902773717E-002   1.51134835203427       0.000000000000000E+000
  -1.09216829807088        1.99384890146228       0.000000000000000E+000
 -0.793014136985592      -0.716839081419716       0.000000000000000E+000
 -0.145493383611214        1.97563168507274       0.000000000000000E+000
  0.223854881108896        1.97220071405941       0.000000000000000E+000
 -0.907911993930539        1.98769786000447       0.000000000000000E+000
 -0.117694528442692       0.665057332166022       0.000000000000000E+000
  -1.53912962190312        1.79472142860116       0.000000000000000E+000
  6.418867089856661E-002  0.689110438819143       0.000000000000000E+000
   1.47518618353803       -1.81972373564194       0.000000000000000E+000
  -1.13652250768447        1.42168369360322       0.000000000000000E+000
 -0.683160170106910      -0.881842541834853       0.000000000000000E+000
  -1.46333053060824        1.37530602109216       0.000000000000000E+000
  -1.04010647904898       0.679375733490383       0.000000000000000E+000
  -1.29493422986756        1.37765849875581       0.000000000000000E+000
  -1.99249039538426        1.00165943035856       0.000000000000000E+000
