 variables= "x","y","fPC"
 zone i=         101  j=         101  datapacking=point
  -2.00000000000000       -2.00000000000000       0.780781613108511     
  -2.00000000000000       -1.96000000000000       0.692485187054030     
  -2.00000000000000       -1.92000000000000       0.611884766379236     
  -2.00000000000000       -1.88000000000000       0.538532539828508     
  -2.00000000000000       -1.84000000000000       0.471995580489925     
  -2.00000000000000       -1.80000000000000       0.411855755604194     
  -2.00000000000000       -1.76000000000000       0.357709629438492     
  -2.00000000000000       -1.72000000000000       0.309168359225175     
  -2.00000000000000       -1.68000000000000       0.265857584165364     
  -2.00000000000000       -1.64000000000000       0.227417307497426     
  -2.00000000000000       -1.60000000000000       0.193501771630329     
  -2.00000000000000       -1.56000000000000       0.163779326341879     
  -2.00000000000000       -1.52000000000000       0.137932290041841     
  -2.00000000000000       -1.48000000000000       0.115656804099950     
  -2.00000000000000       -1.44000000000000       9.666268023878662E-002
  -2.00000000000000       -1.40000000000000       8.067324099154935E-002
  -2.00000000000000       -1.36000000000000       6.742515322470950E-002
  -2.00000000000000       -1.32000000000000       5.666825472553513E-002
  -2.00000000000000       -1.28000000000000       4.816537385451237E-002
  -2.00000000000000       -1.24000000000000       4.169214226263563E-002
  -2.00000000000000       -1.20000000000000       3.703680067359683E-002
  -2.00000000000000       -1.16000000000000       3.399999773083540E-002
  -2.00000000000000       -1.12000000000000       3.239458190948741E-002
  -2.00000000000000       -1.08000000000000       3.204538649321404E-002
  -2.00000000000000       -1.04000000000000       3.278900761590172E-002
  -2.00000000000000       -1.00000000000000       3.447357536826237E-002
  -2.00000000000000      -0.960000000000000       3.695851796929400E-002
  -2.00000000000000      -0.920000000000000       4.011431900264411E-002
  -2.00000000000000      -0.880000000000000       4.382226771784517E-002
  -2.00000000000000      -0.840000000000000       4.797420239642980E-002
  -2.00000000000000      -0.800000000000000       5.247224678293638E-002
  -2.00000000000000      -0.760000000000000       5.722853958078841E-002
  -2.00000000000000      -0.720000000000000       6.216495701306370E-002
  -2.00000000000000      -0.680000000000000       6.721282844814064E-002
  -2.00000000000000      -0.640000000000000       7.231264509022783E-002
  -2.00000000000000      -0.600000000000000       7.741376173477774E-002
  -2.00000000000000      -0.560000000000000       8.247409158877810E-002
  -2.00000000000000      -0.520000000000000       8.745979415593434E-002
  -2.00000000000000      -0.480000000000000       9.234495618672328E-002
  -2.00000000000000      -0.440000000000000       9.711126569333507E-002
  -2.00000000000000      -0.400000000000000       0.101747679029499     
  -2.00000000000000      -0.360000000000000       0.106250081035189     
  -2.00000000000000      -0.320000000000000       0.110620938246206     
  -2.00000000000000      -0.280000000000000       0.114868945168656     
  -2.00000000000000      -0.240000000000000       0.119008663618297     
  -2.00000000000000      -0.200000000000000       0.123060155124774     
  -2.00000000000000      -0.160000000000000       0.127048606400736     
  -2.00000000000000      -0.120000000000000       0.131003947875839     
  -2.00000000000000      -8.000000000000007E-002  0.134960465295620     
  -2.00000000000000      -4.000000000000004E-002  0.138956404385263     
  -2.00000000000000       0.000000000000000E+000  0.143033568578248     
  -2.00000000000000       4.000000000000004E-002  0.147236909809875     
  -2.00000000000000       8.000000000000007E-002  0.151614112375675     
  -2.00000000000000       0.120000000000000       0.156215169854700     
  -2.00000000000000       0.160000000000000       0.161091955097703     
  -2.00000000000000       0.200000000000000       0.166297783280188     
  -2.00000000000000       0.240000000000000       0.171886968020354     
  -2.00000000000000       0.280000000000000       0.177914370561914     
  -2.00000000000000       0.320000000000000       0.184434942021796     
  -2.00000000000000       0.360000000000000       0.191503258702732     
  -2.00000000000000       0.400000000000000       0.199173050470725     
  -2.00000000000000       0.440000000000000       0.207496722197397     
  -2.00000000000000       0.480000000000000       0.216524868267223     
  -2.00000000000000       0.520000000000000       0.226305780149645     
  -2.00000000000000       0.560000000000000       0.236884947036066     
  -2.00000000000000       0.600000000000000       0.248304549541733     
  -2.00000000000000       0.640000000000000       0.260602946472497     
  -2.00000000000000       0.680000000000000       0.273814154656451     
  -2.00000000000000       0.720000000000000       0.287967321840464     
  -2.00000000000000       0.760000000000000       0.303086192651580     
  -2.00000000000000       0.800000000000000       0.319188567623315     
  -2.00000000000000       0.840000000000000       0.336285755286825     
  -2.00000000000000       0.880000000000000       0.354382017326962     
  -2.00000000000000       0.920000000000000       0.373474006803207     
  -2.00000000000000       0.960000000000000       0.393550199435494     
  -2.00000000000000        1.00000000000000       0.414590317954908     
  -2.00000000000000        1.04000000000000       0.436564749519268     
  -2.00000000000000        1.08000000000000       0.459433956193591     
  -2.00000000000000        1.12000000000000       0.483147878495446     
  -2.00000000000000        1.16000000000000       0.507645332005173     
  -2.00000000000000        1.20000000000000       0.532853397041006     
  -2.00000000000000        1.24000000000000       0.558686801399062     
  -2.00000000000000        1.28000000000000       0.585047296158212     
  -2.00000000000000        1.32000000000000       0.611823024549854     
  -2.00000000000000        1.36000000000000       0.638887883892539     
  -2.00000000000000        1.40000000000000       0.666100880591502     
  -2.00000000000000        1.44000000000000       0.693305478203064     
  -2.00000000000000        1.48000000000000       0.720328938563926     
  -2.00000000000000        1.52000000000000       0.746981655985328     
  -2.00000000000000        1.56000000000000       0.773056484512108     
  -2.00000000000000        1.60000000000000       0.798328058246639     
  -2.00000000000000        1.64000000000000       0.822552104737635     
  -2.00000000000000        1.68000000000000       0.845464751433860     
  -2.00000000000000        1.72000000000000       0.866781825202702     
  -2.00000000000000        1.76000000000000       0.886198144913641     
  -2.00000000000000        1.80000000000000       0.903386807086590     
  -2.00000000000000        1.84000000000000       0.917998464605126     
  -2.00000000000000        1.88000000000000       0.929660598494593     
  -2.00000000000000        1.92000000000000       0.937976782765105     
  -2.00000000000000        1.96000000000000       0.942525942319411     
  -2.00000000000000        2.00000000000000       0.942861603925651     
  -1.96000000000000       -2.00000000000000       0.692614392642784     
  -1.96000000000000       -1.96000000000000       0.611566707568207     
  -1.96000000000000       -1.92000000000000       0.537759964022764     
  -1.96000000000000       -1.88000000000000       0.470767933001135     
  -1.96000000000000       -1.84000000000000       0.410178595629182     
  -1.96000000000000       -1.80000000000000       0.355594063552915     
  -1.96000000000000       -1.76000000000000       0.306630492392340     
  -1.96000000000000       -1.72000000000000       0.262917988260200     
  -1.96000000000000       -1.68000000000000       0.224100507345570     
  -1.96000000000000       -1.64000000000000       0.189835748562362     
  -1.96000000000000       -1.60000000000000       0.159795039262693     
  -1.96000000000000       -1.56000000000000       0.133663214015154     
  -1.96000000000000       -1.52000000000000       0.111138486447938     
  -1.96000000000000       -1.48000000000000       9.193231415687263E-002
  -1.96000000000000       -1.44000000000000       7.576925667832361E-002
  -1.96000000000000       -1.40000000000000       6.238682652697550E-002
  -1.96000000000000       -1.36000000000000       5.153533329850808E-002
  -1.96000000000000       -1.32000000000000       4.297772083714353E-002
  -1.96000000000000       -1.28000000000000       3.648939746808622E-002
  -1.96000000000000       -1.24000000000000       3.185805929482993E-002
  -1.96000000000000       -1.20000000000000       2.888350656136298E-002
  -1.96000000000000       -1.16000000000000       2.737745307924749E-002
  -1.96000000000000       -1.12000000000000       2.716332871958055E-002
  -1.96000000000000       -1.08000000000000       2.807607496984007E-002
  -1.96000000000000       -1.04000000000000       2.996193355560901E-002
  -1.96000000000000       -1.00000000000000       3.267822812719375E-002
  -1.96000000000000      -0.960000000000000       3.609313901110282E-002
  -1.96000000000000      -0.920000000000000       4.008547102643031E-002
  -1.96000000000000      -0.880000000000000       4.454441436610793E-002
  -1.96000000000000      -0.840000000000000       4.936929854304462E-002
  -1.96000000000000      -0.800000000000000       5.446933940114625E-002
  -1.96000000000000      -0.760000000000000       5.976337919121733E-002
  -1.96000000000000      -0.720000000000000       6.517961971174853E-002
  -1.96000000000000      -0.680000000000000       7.065534851458154E-002
  -1.96000000000000      -0.640000000000000       7.613665817545838E-002
  -1.96000000000000      -0.600000000000000       8.157815862945453E-002
  -1.96000000000000      -0.560000000000000       8.694268257129045E-002
  -1.96000000000000      -0.520000000000000       9.220098392052994E-002
  -1.96000000000000      -0.480000000000000       9.733142935165642E-002
  -1.96000000000000      -0.440000000000000       0.102319682889033     
  -1.96000000000000      -0.400000000000000       0.107158383566748     
  -1.96000000000000      -0.360000000000000       0.111846816153337     
  -1.96000000000000      -0.320000000000000       0.116390574941389     
  -1.96000000000000      -0.280000000000000       0.120801220602039     
  -1.96000000000000      -0.240000000000000       0.125095930104338     
  -1.96000000000000      -0.200000000000000       0.129297139699504     
  -1.96000000000000      -0.160000000000000       0.133432180970062     
  -1.96000000000000      -0.120000000000000       0.137532909943862     
  -1.96000000000000      -8.000000000000007E-002  0.141635329272973     
  -1.96000000000000      -4.000000000000004E-002  0.145779203477475     
  -1.96000000000000       0.000000000000000E+000  0.150007667254115     
  -1.96000000000000       4.000000000000004E-002  0.154366826849860     
  -1.96000000000000       8.000000000000007E-002  0.158905354500324     
  -1.96000000000000       0.120000000000000       0.163674075933079     
  -1.96000000000000       0.160000000000000       0.168725550935847     
  -1.96000000000000       0.200000000000000       0.174113646989582     
  -1.96000000000000       0.240000000000000       0.179893105966419     
  -1.96000000000000       0.280000000000000       0.186119103892524     
  -1.96000000000000       0.320000000000000       0.192846803775807     
  -1.96000000000000       0.360000000000000       0.200130901498535     
  -1.96000000000000       0.400000000000000       0.208025164774812     
  -1.96000000000000       0.440000000000000       0.216581965172953     
  -1.96000000000000       0.480000000000000       0.225851803202734     
  -1.96000000000000       0.520000000000000       0.235882826467522     
  -1.96000000000000       0.560000000000000       0.246720340881298     
  -1.96000000000000       0.600000000000000       0.258406314950548     
  -1.96000000000000       0.640000000000000       0.270978877121046     
  -1.96000000000000       0.680000000000000       0.284471806189519     
  -1.96000000000000       0.720000000000000       0.298914014780185     
  -1.96000000000000       0.760000000000000       0.314329025886187     
  -1.96000000000000       0.800000000000000       0.330734442475898     
  -1.96000000000000       0.840000000000000       0.348141410164113     
  -1.96000000000000       0.880000000000000       0.366554072948123     
  -1.96000000000000       0.920000000000000       0.385969022008668     
  -1.96000000000000       0.960000000000000       0.406374737575781     
  -1.96000000000000        1.00000000000000       0.427751023859501     
  -1.96000000000000        1.04000000000000       0.450068437045482     
  -1.96000000000000        1.08000000000000       0.473287706355471     
  -1.96000000000000        1.12000000000000       0.497359148172679     
  -1.96000000000000        1.16000000000000       0.522222073232031     
  -1.96000000000000        1.20000000000000       0.547804186875292     
  -1.96000000000000        1.24000000000000       0.574020982371087     
  -1.96000000000000        1.28000000000000       0.600775127299790     
  -1.96000000000000        1.32000000000000       0.627955843003306     
  -1.96000000000000        1.36000000000000       0.655438277099733     
  -1.96000000000000        1.40000000000000       0.683082869062896     
  -1.96000000000000        1.44000000000000       0.710734708866785     
  -1.96000000000000        1.48000000000000       0.738222888694843     
  -1.96000000000000        1.52000000000000       0.765359847714175     
  -1.96000000000000        1.56000000000000       0.791940709914605     
  -1.96000000000000        1.60000000000000       0.817742615012636     
  -1.96000000000000        1.64000000000000       0.842524042420281     
  -1.96000000000000        1.68000000000000       0.866024128278786     
  -1.96000000000000        1.72000000000000       0.887961975557229     
  -1.96000000000000        1.76000000000000       0.908035957215995     
  -1.96000000000000        1.80000000000000       0.925923012435151     
  -1.96000000000000        1.84000000000000       0.941277935907684     
  -1.96000000000000        1.88000000000000       0.953732660197640     
  -1.96000000000000        1.92000000000000       0.962895531163120     
  -1.96000000000000        1.96000000000000       0.968350576444190     
  -1.96000000000000        2.00000000000000       0.969656767015644     
  -1.92000000000000       -2.00000000000000       0.612526062705288     
  -1.92000000000000       -1.96000000000000       0.538292358083850     
  -1.92000000000000       -1.92000000000000       0.470862086572791     
  -1.92000000000000       -1.88000000000000       0.409830125906840     
  -1.92000000000000       -1.84000000000000       0.354804896752557     
  -1.92000000000000       -1.80000000000000       0.305408293677297     
  -1.92000000000000       -1.76000000000000       0.261275609183095     
  -1.92000000000000       -1.72000000000000       0.222055450805413     
  -1.92000000000000       -1.68000000000000       0.187409651276758     
  -1.92000000000000       -1.64000000000000       0.157013171755210     
  -1.92000000000000       -1.60000000000000       0.130553998117807     
  -1.92000000000000       -1.56000000000000       0.107733030318831     
  -1.92000000000000       -1.52000000000000       8.826396481295747E-002
  -1.92000000000000       -1.48000000000000       7.187317004331066E-002
  -1.92000000000000       -1.44000000000000       5.829955499437214E-002
  -1.92000000000000       -1.40000000000000       4.729443080980202E-002
  -1.92000000000000       -1.36000000000000       3.862136547511792E-002
  -1.92000000000000       -1.32000000000000       3.205603156526897E-002
  -1.92000000000000       -1.28000000000000       2.738604705708765E-002
  -1.92000000000000       -1.24000000000000       2.441080920663026E-002
  -1.92000000000000       -1.20000000000000       2.294132149138762E-002
  -1.92000000000000       -1.16000000000000       2.280001361738556E-002
  -1.92000000000000       -1.12000000000000       2.382055459117220E-002
  -1.92000000000000       -1.08000000000000       2.584765885667641E-002
  -1.92000000000000       -1.04000000000000       2.873688549695701E-002
  -1.92000000000000       -1.00000000000000       3.235443050083275E-002
  -1.92000000000000      -0.960000000000000       3.657691209438804E-002
  -1.92000000000000      -0.920000000000000       4.129114913736891E-002
  -1.92000000000000      -0.880000000000000       4.639393258446079E-002
  -1.92000000000000      -0.840000000000000       5.179179001144206E-002
  -1.92000000000000      -0.800000000000000       5.740074320622355E-002
  -1.92000000000000      -0.760000000000000       6.314605882477635E-002
  -1.92000000000000      -0.720000000000000       6.896199211192597E-002
  -1.92000000000000      -0.680000000000000       7.479152368704815E-002
  -1.92000000000000      -0.640000000000000       8.058608939463137E-002
  -1.92000000000000      -0.600000000000000       8.630530321972983E-002
  -1.92000000000000      -0.560000000000000       9.191667326829653E-002
  -1.92000000000000      -0.520000000000000       9.739531081239719E-002
  -1.92000000000000      -0.480000000000000       0.102723632400310     
  -1.92000000000000      -0.440000000000000       0.107891055031501     
  -1.92000000000000      -0.400000000000000       0.112893684396491     
  -1.92000000000000      -0.360000000000000       0.117733996181595     
  -1.92000000000000      -0.320000000000000       0.122420510438553     
  -1.92000000000000      -0.280000000000000       0.126967459019034     
  -1.92000000000000      -0.240000000000000       0.131394446074028     
  -1.92000000000000      -0.200000000000000       0.135726101618121     
  -1.92000000000000      -0.160000000000000       0.139991728158649     
  -1.92000000000000      -0.120000000000000       0.144224940389733     
  -1.92000000000000      -8.000000000000007E-002  0.148463297951202     
  -1.92000000000000      -4.000000000000004E-002  0.152747931252392     
  -1.92000000000000       0.000000000000000E+000  0.157123160360832     
  -1.92000000000000       4.000000000000004E-002  0.161636106955808     
  -1.92000000000000       8.000000000000007E-002  0.166336299346814     
  -1.92000000000000       0.120000000000000       0.171275270556881     
  -1.92000000000000       0.160000000000000       0.176506149470790     
  -1.92000000000000       0.200000000000000       0.182083245048166     
  -1.92000000000000       0.240000000000000       0.188061623601457     
  -1.92000000000000       0.280000000000000       0.194496679138793     
  -1.92000000000000       0.320000000000000       0.201443696771729     
  -1.92000000000000       0.360000000000000       0.208957409187865     
  -1.92000000000000       0.400000000000000       0.217091546188354     
  -1.92000000000000       0.440000000000000       0.225898377290293     
  -1.92000000000000       0.480000000000000       0.235428247393991     
  -1.92000000000000       0.520000000000000       0.245729105515121     
  -1.92000000000000       0.560000000000000       0.256846026581756     
  -1.92000000000000       0.600000000000000       0.268820726296288     
  -1.92000000000000       0.640000000000000       0.281691069062224     
  -1.92000000000000       0.680000000000000       0.295490568975869     
  -1.92000000000000       0.720000000000000       0.310247883882891     
  -1.92000000000000       0.760000000000000       0.325986302499767     
  -1.92000000000000       0.800000000000000       0.342723224600108     
  -1.92000000000000       0.840000000000000       0.360469634265875     
  -1.92000000000000       0.880000000000000       0.379229566203465     
  -1.92000000000000       0.920000000000000       0.398999565124693     
  -1.92000000000000       0.960000000000000       0.419768138192642     
  -1.92000000000000        1.00000000000000       0.441515200532410     
  -1.92000000000000        1.04000000000000       0.464211513806725     
  -1.92000000000000        1.08000000000000       0.487818117856450     
  -1.92000000000000        1.12000000000000       0.512285755405974     
  -1.92000000000000        1.16000000000000       0.537554289833474     
  -1.92000000000000        1.20000000000000       0.563552116006068     
  -1.92000000000000        1.24000000000000       0.590195564179847     
  -1.92000000000000        1.28000000000000       0.617388296964793     
  -1.92000000000000        1.32000000000000       0.645020699354571     
  -1.92000000000000        1.36000000000000       0.672969261821212     
  -1.92000000000000        1.40000000000000       0.701095956474672     
  -1.92000000000000        1.44000000000000       0.729247606287279     
  -1.92000000000000        1.48000000000000       0.757255247383052     
  -1.92000000000000        1.52000000000000       0.784933484391922     
  -1.92000000000000        1.56000000000000       0.812079838868805     
  -1.92000000000000        1.60000000000000       0.838474090777594     
  -1.92000000000000        1.64000000000000       0.863877613039995     
  -1.92000000000000        1.68000000000000       0.888032699149277     
  -1.92000000000000        1.72000000000000       0.910661883848887     
  -1.92000000000000        1.76000000000000       0.931467256875947     
  -1.92000000000000        1.80000000000000       0.950129769769652     
  -1.92000000000000        1.84000000000000       0.966308535744515     
  -1.92000000000000        1.88000000000000       0.979640122628530     
  -1.92000000000000        1.92000000000000       0.989737838866200     
  -1.92000000000000        1.96000000000000       0.996191012586448     
  -1.92000000000000        2.00000000000000       0.998564263735408     
  -1.88000000000000       -2.00000000000000       0.539958624736505     
  -1.88000000000000       -1.96000000000000       0.472123860506812     
  -1.88000000000000       -1.92000000000000       0.410672101447394     
  -1.88000000000000       -1.88000000000000       0.355218862704167     
  -1.88000000000000       -1.84000000000000       0.305392542168649     
  -1.88000000000000       -1.80000000000000       0.260834362026969     
  -1.88000000000000       -1.76000000000000       0.221198303373745     
  -1.88000000000000       -1.72000000000000       0.186151033890862     
  -1.88000000000000       -1.68000000000000       0.155371828591110     
  -1.88000000000000       -1.64000000000000       0.128552483626729     
  -1.88000000000000       -1.60000000000000       0.105397223162810     
  -1.88000000000000       -1.56000000000000       8.562259931560309E-002
  -1.88000000000000       -1.52000000000000       6.895738515569312E-002
  -1.88000000000000       -1.48000000000000       5.514246077605813E-002
  -1.88000000000000       -1.44000000000000       4.393069242501559E-002
  -1.88000000000000       -1.40000000000000       3.508680470404821E-002
  -1.88000000000000       -1.36000000000000       2.838724583050569E-002
  -1.88000000000000       -1.32000000000000       2.362004596520692E-002
  -1.88000000000000       -1.28000000000000       2.058466860490100E-002
  -1.88000000000000       -1.24000000000000       1.909185503962497E-002
  -1.88000000000000       -1.20000000000000       1.896346187494457E-002
  -1.88000000000000       -1.16000000000000       2.003229161906761E-002
  -1.88000000000000       -1.12000000000000       2.214191633484790E-002
  -1.88000000000000       -1.08000000000000       2.514649435666956E-002
  -1.88000000000000       -1.04000000000000       2.891058007220960E-002
  -1.88000000000000       -1.00000000000000       3.330892676908804E-002
  -1.88000000000000      -0.960000000000000       3.822628254639714E-002
  -1.88000000000000      -0.920000000000000       4.355717929111285E-002
  -1.88000000000000      -0.880000000000000       4.920571471939197E-002
  -1.88000000000000      -0.840000000000000       5.508532748274475E-002
  -1.88000000000000      -0.800000000000000       6.111856533909638E-002
  -1.88000000000000      -0.760000000000000       6.723684638872904E-002
  -1.88000000000000      -0.720000000000000       7.338021337510192E-002
  -1.88000000000000      -0.680000000000000       7.949708105055947E-002
  -1.88000000000000      -0.640000000000000       8.554397660691758E-002
  -1.88000000000000      -0.600000000000000       9.148527317093512E-002
  -1.88000000000000      -0.560000000000000       9.729291636466361E-002
  -1.88000000000000      -0.520000000000000       0.102946143930684     
  -1.88000000000000      -0.480000000000000       0.108431198422223     
  -1.88000000000000      -0.440000000000000       0.113741032958149     
  -1.88000000000000      -0.400000000000000       0.118875010042856     
  -1.88000000000000      -0.360000000000000       0.123838593451029     
  -1.88000000000000      -0.320000000000000       0.128643033177283     
  -1.88000000000000      -0.280000000000000       0.133305043450694     
  -1.88000000000000      -0.240000000000000       0.137846473814214     
  -1.88000000000000      -0.200000000000000       0.142293973268951     
  -1.88000000000000      -0.160000000000000       0.146678647483356     
  -1.88000000000000      -0.120000000000000       0.151035709067273     
  -1.88000000000000      -8.000000000000007E-002  0.155404120910876     
  -1.88000000000000      -4.000000000000004E-002  0.159826232588497     
  -1.88000000000000       0.000000000000000E+000  0.164347409827321     
  -1.88000000000000       4.000000000000004E-002  0.169015657040977     
  -1.88000000000000       8.000000000000007E-002  0.173881232928004     
  -1.88000000000000       0.120000000000000       0.178996259135200     
  -1.88000000000000       0.160000000000000       0.184414321985855     
  -1.88000000000000       0.200000000000000       0.190190067272866     
  -1.88000000000000       0.240000000000000       0.196378788116731     
  -1.88000000000000       0.280000000000000       0.203036005888429     
  -1.88000000000000       0.320000000000000       0.210217044197183     
  -1.88000000000000       0.360000000000000       0.217976595943098     
  -1.88000000000000       0.400000000000000       0.226368283434692     
  -1.88000000000000       0.440000000000000       0.235444211571299     
  -1.88000000000000       0.480000000000000       0.245254514090363     
  -1.88000000000000       0.520000000000000       0.255846892879607     
  -1.88000000000000       0.560000000000000       0.267266150354086     
  -1.88000000000000       0.600000000000000       0.279553714898127     
  -1.88000000000000       0.640000000000000       0.292747159372146     
  -1.88000000000000       0.680000000000000       0.306879712684347     
  -1.88000000000000       0.720000000000000       0.321979764427310     
  -1.88000000000000       0.760000000000000       0.338070362579449     
  -1.88000000000000       0.800000000000000       0.355168704271367     
  -1.88000000000000       0.840000000000000       0.373285619617081     
  -1.88000000000000       0.880000000000000       0.392425048610135     
  -1.88000000000000       0.920000000000000       0.412583511084593     
  -1.88000000000000       0.960000000000000       0.433749569740919     
  -1.88000000000000        1.00000000000000       0.455903286236732     
  -1.88000000000000        1.04000000000000       0.479015670342447     
  -1.88000000000000        1.08000000000000       0.503048122161800     
  -1.88000000000000        1.12000000000000       0.527951867417253     
  -1.88000000000000        1.16000000000000       0.553667385800277     
  -1.88000000000000        1.20000000000000       0.580123832386532     
  -1.88000000000000        1.24000000000000       0.607238452115904     
  -1.88000000000000        1.28000000000000       0.634915987337452     
  -1.88000000000000        1.32000000000000       0.663048078419217     
  -1.88000000000000        1.36000000000000       0.691512657422926     
  -1.88000000000000        1.40000000000000       0.720173334843566     
  -1.88000000000000        1.44000000000000       0.748878779413854     
  -1.88000000000000        1.48000000000000       0.777462090973575     
  -1.88000000000000        1.52000000000000       0.805740166403815     
  -1.88000000000000        1.56000000000000       0.833513058626068     
  -1.88000000000000        1.60000000000000       0.860563328666230     
  -1.88000000000000        1.64000000000000       0.886655390783468     
  -1.88000000000000        1.68000000000000       0.911534850663984     
  -1.88000000000000        1.72000000000000       0.934927836679646     
  -1.88000000000000        1.76000000000000       0.956540324211511     
  -1.88000000000000        1.80000000000000       0.976057453038231     
  -1.88000000000000        1.84000000000000       0.993142837789336     
  -1.88000000000000        1.88000000000000        1.00743787146340     
  -1.88000000000000        1.92000000000000        1.01856102201108     
  -1.88000000000000        1.96000000000000        1.02610712198309     
  -1.88000000000000        2.00000000000000        1.02964665124294     
  -1.84000000000000       -2.00000000000000       0.474382413362238     
  -1.84000000000000       -1.96000000000000       0.412550690863093     
  -1.84000000000000       -1.92000000000000       0.356698157935834     
  -1.84000000000000       -1.88000000000000       0.306460503990063     
  -1.84000000000000       -1.84000000000000       0.261485648007903     