 variables= "x","y","fPC"
 zone i=         101  j=         101  datapacking=point
  -2.00000000000000       -2.00000000000000        1.55995025617795     
  -2.00000000000000       -1.96000000000000        1.38714615641065     
  -2.00000000000000       -1.92000000000000        1.22470626412509     
  -2.00000000000000       -1.88000000000000        1.07225760260491     
  -2.00000000000000       -1.84000000000000       0.929433708084578     
  -2.00000000000000       -1.80000000000000       0.795874629749416     
  -2.00000000000000       -1.76000000000000       0.671226929735556     
  -2.00000000000000       -1.72000000000000       0.555143683129975     
  -2.00000000000000       -1.68000000000000       0.447284477970473     
  -2.00000000000000       -1.64000000000000       0.347315415245694     
  -2.00000000000000       -1.60000000000000       0.254909108895098     
  -2.00000000000000       -1.56000000000000       0.169744685808993     
  -2.00000000000000       -1.52000000000000       9.150778582850749E-002
  -2.00000000000000       -1.48000000000000       1.989056174560883E-002
  -2.00000000000000       -1.44000000000000      -4.540832069690143E-002
  -2.00000000000000       -1.40000000000000      -0.104683682805401     
  -2.00000000000000       -1.36000000000000      -0.158223832935424     
  -2.00000000000000       -1.32000000000000      -0.206310566491677     
  -2.00000000000000       -1.28000000000000      -0.249219165928032     
  -2.00000000000000       -1.24000000000000      -0.287218400747535     
  -2.00000000000000       -1.20000000000000      -0.320570527502392     
  -2.00000000000000       -1.16000000000000      -0.349531289793983     
  -2.00000000000000       -1.12000000000000      -0.374349918272851     
  -2.00000000000000       -1.08000000000000      -0.395269130638710     
  -2.00000000000000       -1.04000000000000      -0.412525131640442     
  -2.00000000000000       -1.00000000000000      -0.426347613076096     
  -2.00000000000000      -0.960000000000000      -0.436959753792886     
  -2.00000000000000      -0.920000000000000      -0.444578219687200     
  -2.00000000000000      -0.880000000000000      -0.449413163704588     
  -2.00000000000000      -0.840000000000000      -0.451668225839772     
  -2.00000000000000      -0.800000000000000      -0.451540533136640     
  -2.00000000000000      -0.760000000000000      -0.449220699688246     
  -2.00000000000000      -0.720000000000000      -0.444892826636816     
  -2.00000000000000      -0.680000000000000      -0.438734502173740     
  -2.00000000000000      -0.640000000000000      -0.430916801539579     
  -2.00000000000000      -0.600000000000000      -0.421604287024061     
  -2.00000000000000      -0.560000000000000      -0.410955007966080     
  -2.00000000000000      -0.520000000000000      -0.399120500753698     
  -2.00000000000000      -0.480000000000000      -0.386245788824148     
  -2.00000000000000      -0.440000000000000      -0.372469382663829     
  -2.00000000000000      -0.400000000000000      -0.357923279808306     
  -2.00000000000000      -0.360000000000000      -0.342732964842314     
  -2.00000000000000      -0.320000000000000      -0.327017409399757     
  -2.00000000000000      -0.280000000000000      -0.310889072163703     
  -2.00000000000000      -0.240000000000000      -0.294453898866391     
  -2.00000000000000      -0.200000000000000      -0.277811322289228     
  -2.00000000000000      -0.160000000000000      -0.261054262262786     
  -2.00000000000000      -0.120000000000000      -0.244269125666808     
  -2.00000000000000      -8.000000000000007E-002 -0.227535806430203     
  -2.00000000000000      -4.000000000000004E-002 -0.210927685531049     
  -2.00000000000000       0.000000000000000E+000 -0.194511630996589     
  -2.00000000000000       4.000000000000004E-002 -0.178347997903239     
  -2.00000000000000       8.000000000000007E-002 -0.162490628376579     
  -2.00000000000000       0.120000000000000      -0.146986851591357     
  -2.00000000000000       0.160000000000000      -0.131877483771490     
  -2.00000000000000       0.200000000000000      -0.117196828190062     
  -2.00000000000000       0.240000000000000      -0.102972675169328     
  -2.00000000000000       0.280000000000000      -8.922630208070419E-002
  -2.00000000000000       0.320000000000000      -7.597247334478127E-002
  -2.00000000000000       0.360000000000000      -6.321944043131410E-002
  -2.00000000000000       0.400000000000000      -5.096894185922708E-002
  -2.00000000000000       0.440000000000000      -3.921620319661138E-002
  -2.00000000000000       0.480000000000000      -2.794993706072654E-002
  -2.00000000000000       0.520000000000000      -1.715234311799989E-002
  -2.00000000000000       0.560000000000000      -6.799108084026813E-003
  -2.00000000000000       0.600000000000000       3.140594276429915E-003
  -2.00000000000000       0.640000000000000       1.270410314943893E-002
  -2.00000000000000       0.680000000000000       2.193527067190215E-002
  -2.00000000000000       0.720000000000000       3.088446193155247E-002
  -2.00000000000000       0.760000000000000       3.960855496695598E-002
  -2.00000000000000       0.800000000000000       4.817094076751001E-002
  -2.00000000000000       0.840000000000000       5.664152327344431E-002
  -2.00000000000000       0.880000000000000       6.509671937582148E-002
  -2.00000000000000       0.920000000000000       7.361945891653505E-002
  -2.00000000000000       0.960000000000000       8.229918468831135E-002
  -2.00000000000000        1.00000000000000       9.123185243470920E-002
  -2.00000000000000        1.04000000000000       0.100519930850119     
  -2.00000000000000        1.08000000000000       0.110272401579763     
  -2.00000000000000        1.12000000000000       0.120604759219696     
  -2.00000000000000        1.16000000000000       0.131639011316807     
  -2.00000000000000        1.20000000000000       0.143503678368813     
  -2.00000000000000        1.24000000000000       0.156333793824265     
  -2.00000000000000        1.28000000000000       0.170270904082549     
  -2.00000000000000        1.32000000000000       0.185463068493878     
  -2.00000000000000        1.36000000000000       0.202064859359301     
  -2.00000000000000        1.40000000000000       0.220237361930698     
  -2.00000000000000        1.44000000000000       0.240148174410780     
  -2.00000000000000        1.48000000000000       0.261971407953093     
  -2.00000000000000        1.52000000000000       0.285887686662010     
  -2.00000000000000        1.56000000000000       0.312084147592745     
  -2.00000000000000        1.60000000000000       0.340754440751333     
  -2.00000000000000        1.64000000000000       0.372098729094651     
  -2.00000000000000        1.68000000000000       0.406323688530401     
  -2.00000000000000        1.72000000000000       0.443642507917122     
  -2.00000000000000        1.76000000000000       0.484274889064180     
  -2.00000000000000        1.80000000000000       0.528447046731780     
  -2.00000000000000        1.84000000000000       0.576391708630955     
  -2.00000000000000        1.88000000000000       0.628348115423570     
  -2.00000000000000        1.92000000000000       0.684562020722322     
  -2.00000000000000        1.96000000000000       0.745285691090741     
  -2.00000000000000        2.00000000000000       0.810777906043191     
  -1.96000000000000       -2.00000000000000        1.46892605389366     
  -1.96000000000000       -1.96000000000000        1.30358479613907     
  -1.96000000000000       -1.92000000000000        1.14837361597908     
  -1.96000000000000       -1.88000000000000        1.00292315419745     
  -1.96000000000000       -1.84000000000000       0.866870564528758     
  -1.96000000000000       -1.80000000000000       0.739859513658419     
  -1.96000000000000       -1.76000000000000       0.621540181222690     
  -1.96000000000000       -1.72000000000000       0.511569259808647     
  -1.96000000000000       -1.68000000000000       0.409609954954207     
  -1.96000000000000       -1.64000000000000       0.315331985148113     
  -1.96000000000000       -1.60000000000000       0.228411581829944     
  -1.96000000000000       -1.56000000000000       0.148531489390108     
  -1.96000000000000       -1.52000000000000       7.538096516985260E-002
  -1.96000000000000       -1.48000000000000       8.655779461245350E-003
  -1.96000000000000       -1.44000000000000      -5.194178449280135E-002
  -1.96000000000000       -1.40000000000000      -0.106702930498552     
  -1.96000000000000       -1.36000000000000      -0.155912349411435     
  -1.96000000000000       -1.32000000000000      -0.199848219136047     
  -1.96000000000000       -1.28000000000000      -0.238782204626154     
  -1.96000000000000       -1.24000000000000      -0.272979457884687     
  -1.96000000000000       -1.20000000000000      -0.302698617963749     
  -1.96000000000000       -1.16000000000000      -0.328191810964607     
  -1.96000000000000       -1.12000000000000      -0.349704650037697     
  -1.96000000000000       -1.08000000000000      -0.367476235382625     
  -1.96000000000000       -1.04000000000000      -0.381739154248160     
  -1.96000000000000       -1.00000000000000      -0.392719480932245     
  -1.96000000000000      -0.960000000000000      -0.400636776781986     
  -1.96000000000000      -0.920000000000000      -0.405704090193658     
  -1.96000000000000      -0.880000000000000      -0.408127956612707     
  -1.96000000000000      -0.840000000000000      -0.408108398533741     
  -1.96000000000000      -0.800000000000000      -0.405838925500542     
  -1.96000000000000      -0.760000000000000      -0.401506534106054     
  -1.96000000000000      -0.720000000000000      -0.395291707992396     
  -1.96000000000000      -0.680000000000000      -0.387368417850847     
  -1.96000000000000      -0.640000000000000      -0.377904121421858     
  -1.96000000000000      -0.600000000000000      -0.367059763495050     
  -1.96000000000000      -0.560000000000000      -0.354989775909207     
  -1.96000000000000      -0.520000000000000      -0.341842077552284     
  -1.96000000000000      -0.480000000000000      -0.327758074361402     
  -1.96000000000000      -0.440000000000000      -0.312872659322853     
  -1.96000000000000      -0.400000000000000      -0.297314212472091     
  -1.96000000000000      -0.360000000000000      -0.281204600893746     
  -1.96000000000000      -0.320000000000000      -0.264659178721607     
  -1.96000000000000      -0.280000000000000      -0.247786787138639     
  -1.96000000000000      -0.240000000000000      -0.230689754376968     
  -1.96000000000000      -0.200000000000000      -0.213463895717893     
  -1.96000000000000      -0.160000000000000      -0.196198513491879     
  -1.96000000000000      -0.120000000000000      -0.178976397078557     
  -1.96000000000000      -8.000000000000007E-002 -0.161873822906729     
  -1.96000000000000      -4.000000000000004E-002 -0.144960554454363     
  -1.96000000000000       0.000000000000000E+000 -0.128299842248594     
  -1.96000000000000       4.000000000000004E-002 -0.111948423865727     
  -1.96000000000000       8.000000000000007E-002 -9.595652393123492E-002
  -1.96000000000000       0.120000000000000      -8.036785411975622E-002
  -1.96000000000000       0.160000000000000      -6.521961315509871E-002
  -1.96000000000000       0.200000000000000      -5.054248681023832E-002
  -1.96000000000000       0.240000000000000      -3.636064790731833E-002
  -1.96000000000000       0.280000000000000      -2.269175631764948E-002
  -1.96000000000000       0.320000000000000      -9.546958961711307E-003
  -1.96000000000000       0.360000000000000       3.069110190849786E-003
  -1.96000000000000       0.400000000000000       1.515833012121850E-002
  -1.96000000000000       0.440000000000000       2.672909276141280E-002
  -1.96000000000000       0.480000000000000       3.779630299428159E-002
  -1.96000000000000       0.520000000000000       4.838137865350690E-002
  -1.96000000000000       0.560000000000000       5.851225052360255E-002
  -1.96000000000000       0.600000000000000       6.822336233991474E-002
  -1.96000000000000       0.640000000000000       7.755567078862091E-002
  -1.96000000000000       0.680000000000000       8.655664550673184E-002
  -1.96000000000000       0.720000000000000       9.528026908209006E-002
  -1.96000000000000       0.760000000000000       0.103787037053370     
  -1.96000000000000       0.800000000000000       0.112143957910078     
  -1.96000000000000       0.840000000000000       0.120424553092553     
  -1.96000000000000       0.880000000000000       0.128708856991967     
  -1.96000000000000       0.920000000000000       0.137083416950321     
  -1.96000000000000       0.960000000000000       0.145641293260453     
  -1.96000000000000        1.00000000000000       0.154482059166029     
  -1.96000000000000        1.04000000000000       0.163711800861548     
  -1.96000000000000        1.08000000000000       0.173443117492343     
  -1.96000000000000        1.12000000000000       0.183795121154576     
  -1.96000000000000        1.16000000000000       0.194893436895245     
  -1.96000000000000        1.20000000000000       0.206870202712178     
  -1.96000000000000        1.24000000000000       0.219864069554035     
  -1.96000000000000        1.28000000000000       0.234020201320307     
  -1.96000000000000        1.32000000000000       0.249490274861320     
  -1.96000000000000        1.36000000000000       0.266432479978232     
  -1.96000000000000        1.40000000000000       0.285011519423029     
  -1.96000000000000        1.44000000000000       0.305398608898534     
  -1.96000000000000        1.48000000000000       0.327771477058400     
  -1.96000000000000        1.52000000000000       0.352314365507111     
  -1.96000000000000        1.56000000000000       0.379218028799988     
  -1.96000000000000        1.60000000000000       0.408679734443176     
  -1.96000000000000        1.64000000000000       0.440903262893660     
  -1.96000000000000        1.68000000000000       0.476098907559253     
  -1.96000000000000        1.72000000000000       0.514483474798600     
  -1.96000000000000        1.76000000000000       0.556280283921181     
  -1.96000000000000        1.80000000000000       0.601719167187304     
  -1.96000000000000        1.84000000000000       0.651036469808115     
  -1.96000000000000        1.88000000000000       0.704475049945586     
  -1.96000000000000        1.92000000000000       0.762284278712525     
  -1.96000000000000        1.96000000000000       0.824720040172570     
  -1.96000000000000        2.00000000000000       0.892044731340194     
  -1.92000000000000       -2.00000000000000        1.38060811987379     
  -1.92000000000000       -1.96000000000000        1.22252271723157     
  -1.92000000000000       -1.92000000000000        1.07433655313105     
  -1.92000000000000       -1.88000000000000       0.935683885856092     
  -1.92000000000000       -1.84000000000000       0.806205486641383     
  -1.92000000000000       -1.80000000000000       0.685548639672455     
  -1.92000000000000       -1.76000000000000       0.573367142085667     
  -1.92000000000000       -1.72000000000000       0.469321303968205     
  -1.92000000000000       -1.68000000000000       0.373077948358097     
  -1.92000000000000       -1.64000000000000       0.284310411244194     
  -1.92000000000000       -1.60000000000000       0.202698541566187     
  -1.92000000000000       -1.56000000000000       0.127928701214588     
  -1.92000000000000       -1.52000000000000       5.969376503075507E-002
  -1.92000000000000       -1.48000000000000      -2.306879193131384E-003
  -1.92000000000000       -1.44000000000000      -5.836733071405636E-002
  -1.92000000000000       -1.40000000000000      -0.108775175838170     
  -1.92000000000000       -1.36000000000000      -0.153811487920795     
  -1.92000000000000       -1.32000000000000      -0.193750827366417     
  -1.92000000000000       -1.28000000000000      -0.228861241628694     
  -1.92000000000000       -1.24000000000000      -0.259404265210447     
  -1.92000000000000       -1.20000000000000      -0.285634919663671     
  -1.92000000000000       -1.16000000000000      -0.307801713589524     
  -1.92000000000000       -1.12000000000000      -0.326146642638332     
  -1.92000000000000       -1.08000000000000      -0.340905189509592     
  -1.92000000000000       -1.04000000000000      -0.352306323951967     
  -1.92000000000000       -1.00000000000000      -0.360572502763287     
  -1.92000000000000      -0.960000000000000      -0.365919669790550     
  -1.92000000000000      -0.920000000000000      -0.368557255929924     
  -1.92000000000000      -0.880000000000000      -0.368688179126744     
  -1.92000000000000      -0.840000000000000      -0.366508844375510     
  -1.92000000000000      -0.800000000000000      -0.362209143719894     
  -1.92000000000000      -0.760000000000000      -0.355972456252733     
  -1.92000000000000      -0.720000000000000      -0.347975648116035     
  -1.92000000000000      -0.680000000000000      -0.338389072500970     
  -1.92000000000000      -0.640000000000000      -0.327376569647882     
  -1.92000000000000      -0.600000000000000      -0.315095466846280     
  -1.92000000000000      -0.560000000000000      -0.301696578434842     
  -1.92000000000000      -0.520000000000000      -0.287324205801411     
  -1.92000000000000      -0.480000000000000      -0.272116137383002     
  -1.92000000000000      -0.440000000000000      -0.256203648665795     
  -1.92000000000000      -0.400000000000000      -0.239711502185138     
  -1.92000000000000      -0.360000000000000      -0.222757947525550     
  -1.92000000000000      -0.320000000000000      -0.205454721320713     
  -1.92000000000000      -0.280000000000000      -0.187907047253480     
  -1.92000000000000      -0.240000000000000      -0.170213636055871     
  -1.92000000000000      -0.200000000000000      -0.152466685509074     
  -1.92000000000000      -0.160000000000000      -0.134751880443444     
  -1.92000000000000      -0.120000000000000      -0.117148392738506     
  -1.92000000000000      -8.000000000000007E-002 -9.972888132295155E-002
  -1.92000000000000      -4.000000000000004E-002 -8.255949217463895E-002
  -1.92000000000000       0.000000000000000E+000 -6.569985832059597E-002
  -1.92000000000000       4.000000000000004E-002 -4.920309983701774E-002
  -1.92000000000000       8.000000000000007E-002 -3.311582384926673E-002
  -1.92000000000000       0.120000000000000      -1.747812453187447E-002
  -1.92000000000000       0.160000000000000      -2.323583108538741E-003
  -1.92000000000000       0.200000000000000       1.232073214787353E-002
  -1.92000000000000       0.240000000000000       2.643426591532757E-002
  -1.92000000000000       0.280000000000000       4.000297582262177E-002
  -1.92000000000000       0.320000000000000       5.301933244938604E-002
  -1.92000000000000       0.360000000000000       6.548231932608231E-002
  -1.92000000000000       0.400000000000000       7.739743293400531E-002
  -1.92000000000000       0.440000000000000       8.877668270528075E-002
  -1.92000000000000       0.480000000000000       9.963859102286746E-002
  -1.92000000000000       0.520000000000000       0.110008193220557     
  -1.92000000000000       0.560000000000000       0.119917037582970     
  -1.92000000000000       0.600000000000000       0.129403185345563     
  -1.92000000000000       0.640000000000000       0.138511210694623     
  -1.92000000000000       0.680000000000000       0.147292200767270     
  -1.92000000000000       0.720000000000000       0.155803755651453     
  -1.92000000000000       0.760000000000000       0.164109988385959     
  -1.92000000000000       0.800000000000000       0.172281524960401     
  -1.92000000000000       0.840000000000000       0.180395504315227     
  -1.92000000000000       0.880000000000000       0.188535578341719     
  -1.92000000000000       0.920000000000000       0.196791911881986     
  -1.92000000000000       0.960000000000000       0.205261182728976     
  -1.92000000000000        1.00000000000000       0.214046581626463     
  -1.92000000000000        1.04000000000000       0.223257812269056     
  -1.92000000000000        1.08000000000000       0.233011091302196     
  -1.92000000000000        1.12000000000000       0.243429148322156     
  -1.92000000000000        1.16000000000000       0.254641225876041     
  -1.92000000000000        1.20000000000000       0.266783079461787     
  -1.92000000000000        1.24000000000000       0.279996977528165     
  -1.92000000000000        1.28000000000000       0.294431701474776     
  -1.92000000000000        1.32000000000000       0.310242545652054     
  -1.92000000000000        1.36000000000000       0.327591317361262     
  -1.92000000000000        1.40000000000000       0.346646336854502     
  -1.92000000000000        1.44000000000000       0.367582437334702     
  -1.92000000000000        1.48000000000000       0.390580964955623     
  -1.92000000000000        1.52000000000000       0.415829778821861     
  -1.92000000000000        1.56000000000000       0.443523250988843     
  -1.92000000000000        1.60000000000000       0.473862266462826     
  -1.92000000000000        1.64000000000000       0.507054223200902     
  -1.92000000000000        1.68000000000000       0.543313032110992     
  -1.92000000000000        1.72000000000000       0.582859117051856     
  -1.92000000000000        1.76000000000000       0.625919414833075     
  -1.92000000000000        1.80000000000000       0.672727375215071     
  -1.92000000000000        1.84000000000000       0.723522960909097     
  -1.92000000000000        1.88000000000000       0.778552647577235     
  -1.92000000000000        1.92000000000000       0.838069423832401     
  -1.92000000000000        1.96000000000000       0.902332791238344     
  -1.92000000000000        2.00000000000000       0.971608764309642     
  -1.88000000000000       -2.00000000000000        1.29497245372325     
  -1.88000000000000       -1.96000000000000        1.14393884926593     
  -1.88000000000000       -1.92000000000000        1.00257693513163     
  -1.88000000000000       -1.88000000000000       0.870524587104328     
  -1.88000000000000       -1.84000000000000       0.747426193918826     
  -1.88000000000000       -1.80000000000000       0.632932657260758     
  -1.88000000000000       -1.76000000000000       0.526701391766589     
  -1.88000000000000       -1.72000000000000       0.428396325023624     
  -1.88000000000000       -1.68000000000000       0.337687897569989     
  -1.88000000000000       -1.64000000000000       0.254253062894653     
  -1.88000000000000       -1.60000000000000       0.177775287437408     
  -1.88000000000000       -1.56000000000000       0.107944550588883     
  -1.88000000000000       -1.52000000000000       4.445734469053886E-002
  -1.88000000000000       -1.48000000000000      -1.298332496533378E-002
  -1.88000000000000       -1.44000000000000      -6.466794013560578E-002
  -1.88000000000000       -1.40000000000000      -0.110880469626327     
  -1.88000000000000       -1.36000000000000      -0.151898369292703     
  -1.88000000000000       -1.32000000000000      -0.187992582039116     
  -1.88000000000000       -1.28000000000000      -0.219427537819111     
  -1.88000000000000       -1.24000000000000      -0.246461153635405     
  -1.88000000000000       -1.20000000000000      -0.269344833539879     
  -1.88000000000000       -1.16000000000000      -0.288323468633584     
  -1.88000000000000       -1.12000000000000      -0.303635437066738     
  -1.88000000000000       -1.08000000000000      -0.315512604038727     
  -1.88000000000000       -1.04000000000000      -0.324180321798105     
  -1.88000000000000       -1.00000000000000      -0.329857429642595     
  -1.88000000000000      -0.960000000000000      -0.332756253919086     
  -1.88000000000000      -0.920000000000000      -0.333082608023634     
  -1.88000000000000      -0.880000000000000      -0.331035792401467     
  -1.88000000000000      -0.840000000000000      -0.326808594546977     
  -1.88000000000000      -0.800000000000000      -0.320587289003725     
  -1.88000000000000      -0.760000000000000      -0.312551637364441     
  -1.88000000000000      -0.720000000000000      -0.302874888271021     
  -1.88000000000000      -0.680000000000000      -0.291723777414529     
  -1.88000000000000      -0.640000000000000      -0.279258527535199     
  -1.88000000000000      -0.600000000000000      -0.265632848422431     
  -1.88000000000000      -0.560000000000000      -0.250993936914793     
  -1.88000000000000      -0.520000000000000      -0.235482476900021     
  -1.88000000000000      -0.480000000000000      -0.219232639315019     
  -1.88000000000000      -0.440000000000000      -0.202372082145859     
  -1.88000000000000      -0.400000000000000      -0.185021950427781     
  -1.88000000000000      -0.360000000000000      -0.167296876245192     
  -1.88000000000000      -0.320000000000000      -0.149304978731668     
  -1.88000000000000      -0.280000000000000      -0.131147864069951     
  -1.88000000000000      -0.240000000000000      -0.112920625491954     
  -1.88000000000000      -0.200000000000000      -9.471184327875395E-002
  -1.88000000000000      -0.160000000000000      -7.660358476059846E-002
  -1.88000000000000      -0.120000000000000      -5.867140431690282E-002
  -1.88000000000000      -8.000000000000007E-002 -4.098434337624848E-002
  -1.88000000000000      -4.000000000000004E-002 -2.360493041638667E-002
  -1.88000000000000       0.000000000000000E+000 -6.589180964234964E-003
  -1.88000000000000       4.000000000000004E-002  1.001340240412012E-002
  -1.88000000000000       8.000000000000007E-002  2.615983006342498E-002
  -1.88000000000000       0.120000000000000       4.181362533925747E-002
  -1.88000000000000       0.160000000000000       5.694482450802853E-002
  -1.88000000000000       0.200000000000000       7.152997679698020E-002
  -1.88000000000000       0.240000000000000       8.555214438418730E-002
  -1.88000000000000       0.280000000000000       9.900090239855636E-002
  -1.88000000000000       0.320000000000000       0.111872338919827     
  -1.88000000000000       0.360000000000000       0.124169054978570     
  -1.88000000000000       0.400000000000000       0.135900164556188     
  -1.88000000000000       0.440000000000000       0.147081294584917     
  -1.88000000000000       0.480000000000000       0.157734584947825     
  -1.88000000000000       0.520000000000000       0.167888688478811     
  -1.88000000000000       0.560000000000000       0.177578770962608     
  -1.88000000000000       0.600000000000000       0.186846511134778     
  -1.88000000000000       0.640000000000000       0.195740100681718     
  -1.88000000000000       0.680000000000000       0.204314244240656     
  -1.88000000000000       0.720000000000000       0.212630159399654     
  -1.88000000000000       0.760000000000000       0.220755576697602     
  -1.88000000000000       0.800000000000000       0.228764739624227     
  -1.88000000000000       0.840000000000000       0.236738404620085     
  -1.88000000000000       0.880000000000000       0.244763841076565     
  -1.88000000000000       0.920000000000000       0.252934831335888     
  -1.88000000000000       0.960000000000000       0.261351670691107     
  -1.88000000000000        1.00000000000000       0.270121167386108     
  -1.88000000000000        1.04000000000000       0.279356642615609     
  -1.88000000000000        1.08000000000000       0.289177930525159     
  -1.88000000000000        1.12000000000000       0.299711378211140     
  -1.88000000000000        1.16000000000000       0.311089845720766     
  -1.88000000000000        1.20000000000000       0.323452706052083     
  -1.88000000000000        1.24000000000000       0.336945845153970     
  -1.88000000000000        1.28000000000000       0.351721661926137     
  -1.88000000000000        1.32000000000000       0.367939068219127     
  -1.88000000000000        1.36000000000000       0.385763488834315     
  -1.88000000000000        1.40000000000000       0.405366861523906     
  -1.88000000000000        1.44000000000000       0.426927636990940     
  -1.88000000000000        1.48000000000000       0.450630778889290     
  -1.88000000000000        1.52000000000000       0.476667763823658     
  -1.88000000000000        1.56000000000000       0.505236581349579     
  -1.88000000000000        1.60000000000000       0.536541733973420     
  -1.88000000000000        1.64000000000000       0.570794237152384     
  -1.88000000000000        1.68000000000000       0.608211619294499     
  -1.88000000000000        1.72000000000000       0.649017921758632     
  -1.88000000000000        1.76000000000000       0.693443698854477     
  -1.88000000000000        1.80000000000000       0.741726017842564     
  -1.88000000000000        1.84000000000000       0.794108458934256     
  -1.88000000000000        1.88000000000000       0.850841115291738     
  -1.88000000000000        1.92000000000000       0.912180593028043     
  -1.88000000000000        1.96000000000000       0.978390011207022     
  -1.88000000000000        2.00000000000000        1.04973900184337     
  -1.84000000000000       -2.00000000000000        1.21199480977431     
  -1.84000000000000       -1.96000000000000        1.06781187654728     
  -1.84000000000000       -1.92000000000000       0.933076376258831     
  -1.84000000000000       -1.88000000000000       0.807429802193050     
  -1.84000000000000       -1.84000000000000       0.690520160584839     