 variables= "x","y","f"
 zone i=         156  datapacking=point
  0.000000000000000E+000  0.000000000000000E+000   1.00000000000000     
  0.573697696705580       0.317848495348557       0.194458738813367     
  -1.13553871699787       -1.19306582886485        620.848104941094     
  -1.72648918871397       -1.67556747899288        2175.57688311965     
   1.44166007238557       -1.62625550918541        1372.63027829257     
 -0.564617811305970      -0.112706506596283        21.0672348611523     
   1.01390023161328       0.650834606665262        14.2250898510760     
   1.71210190826259        1.84996158926338        117.434839061181     
  0.387681327506553      -0.786478151770653        88.1296673747119     
  -1.33083750565876      -0.520114882415366        530.412411858026     
 -0.113230062958998        1.33826217650686        176.918699910114     
 -0.512213545583688        1.26330969988346        102.476276206051     
  -1.99887233808785        1.99985508789685        407.249354585058     
  -1.98916989975942        1.32833734689193        699.815093722465     
 -0.289188121749974       -1.99946270920637        435.589433606419     
  -1.39426277206540        1.97916182739669        5.85635000118832     
  0.291033506340229       -1.97789344094168        425.932010757833     
 -0.856402771687777       -1.91253998409490        703.559675283464     
  -1.98744653906874       0.739334270165608        1039.72615723486     
  -1.41854898210807        1.35732220082492        48.7465101565974     
  -1.99103439949459      -0.638638262114699        2127.57484530949     
   1.93481213670540       -1.97998048336338        3276.69447365415     
  -1.99606176789215      -0.144254371298984        1713.44160885781     
   1.03240515529362        1.99900495511134        87.0769252946494     
  -1.99699795710396       -1.23067345295194        2732.43813505364     
   1.98577380983548        1.47457129279832        610.432719756339     
  0.508416623120169        1.98999953786782        300.055060873771     
   1.99938994770299       0.950993955605651        929.155345856522     
   1.98992973483929      -0.769395775205906        2237.52847639004     
   1.16134190604236       -1.99313390386799        1116.82145603113     
  -1.98359638980853       -1.99676451981633        3527.07516958670     
   1.59692891981480      -0.406195581510841        874.373149764447     
   1.64336118762671      -2.043427884409543E-002   740.836256047955     
   1.35371048036315      -0.711191638161359        647.178138725823     
   1.28722543633968      -0.166283108221267        332.500148626998     
   1.71899844853564       0.360475036643233        673.649932414998     
   1.99819530232135       -1.27558505367205        2776.56813367340     
   1.01169018039584      -0.439201418653430        213.954660062529     
   1.33433742337969       0.274133285551481        227.012701803022     
   1.66137581503902        1.23548314594297        232.904295920247     
   1.61686721074008       -1.02893286360678        1327.66564120638     
   1.59183476672218       0.751861757739841        317.929814820761     
  -1.68261467901650       0.322460436557675        636.569906554145     
 -0.498604705812161        1.98827959620978        304.892011116883     
 -0.843590459601822        1.97454960284718        162.891663841408     
  -1.69090663769503      -2.063620616689210E-002   836.566625489632     
  -1.36251309001035       0.417316288704484        212.689726495034     
  -1.61381747344024       0.686869266685014        374.527075364245     
  -1.76216746790060      -0.938832842980668        1643.07738174190     
  -1.61631674545878       -1.99485447716323        2129.59804741507     
  -1.03391208110750       0.416806422542527        46.6690782351599     
   1.99940703088021       6.720181083111498E-002   1545.82419075907     
 -0.560210846841119        1.66073050215921        183.846685913117     
 -0.119774159180783        1.97633290117141        386.193213374987     
  -1.06164829599636        1.73056969583124        40.6683105582269     
 -0.892629230366828       0.727831145036849        4.05753560960606     
   1.99756032681079        1.98634620709206        402.557069288968     
   1.62795449593675       -1.92890446511597        2097.24692101264     
   1.81237262234563       -1.65884953669534        2444.52273552914     
  0.464872456585277        1.64028647534615        203.115249935049     
 -0.336885125436391       -1.02702634049573        131.865376301392     
   1.30313568606635        1.39648639281417        9.19274562581106     
  0.920751242308455       -1.45955910916691        532.388972116906     
  0.755471526824363        1.71012223905474        129.879614551743     
 -0.531475759553298       -1.24723366374566        236.343671895252     
  -1.80276477683012        1.66640583985106        258.620134427398     
  0.227479618830339        1.09366992871834        109.157131474570     
  0.348331121026796        1.36504636876188        155.106576196671     
  0.784961409180859       -1.20175723959950        330.530155422941     
   1.08629836035697       -1.69713949474056        827.826007139214     
 -0.611201274580999      -0.940396797819408        175.246055232618     
 -3.930545344147673E-002  0.907731137821447        83.1975022035091     
  -1.77019470457855        1.99367561271932        137.614298349285     
  -1.72159184795649        1.41669484915024        246.784784332215     
  -1.80332544741730        1.17711657422461        438.365564814641     
   1.87672055031047        1.67678508675527        341.279979449804     
   1.35387130789101        1.99502212167322        2.75139434900467     
  -1.99895852867807       -1.67291340453928        3222.46482569451     
  -1.84034447155838       0.953389994721718        600.248966939035     
  0.196111903874838       -1.44429596067429        220.502724032884     
   1.81256778356235       0.803242453283102        616.771853049746     
   1.99644413471395       0.552828151132005        1179.51504556918     
  -1.62793192614278        1.81654020550940        76.3986152131304     
  -1.99569377598764       0.342859003526116        1333.88660245113     
  0.630108102842098        1.20635150205760        65.6359423876565     
  0.333151638980234       -1.24004365483665        182.973884319640     
 -0.527196189530688       0.652865653465270        16.3895660344024     
 -0.380499584407854       0.320958066072895        5.00965253397301     
   1.87064225829459        1.13982303003683        557.472335284268     
  0.481210279136970       0.973995065358442        55.3896305333039     
   1.98530956961748       -1.77574032832661        3269.60203345770     
  -1.24817479612170      -0.137561395963268        292.526897364822     
   1.89490433211985      -0.964008091044074        2075.30320736525     
  -1.79916711328239       -1.89493035634953        2641.50861701567     
  -1.08732457192321      -0.270813845264954        215.503563087157     
   1.84506274213443      -0.598262310498860        1602.72983181925     
 -0.836447890605197        1.19349981478729        27.7617913845567     
  -1.46471413930606       -1.74958686260395        1523.15735202158     
 -0.949589057287908      -0.440708111065124        184.012053757142     
 -0.304633779618226      -0.235985629218616        12.5121826939434     
  -1.37643333366536       -1.99424517510121        1517.93478803766     
   1.95734059325982       -1.48770570373265        2829.97335215545     
 -0.904886501064268        1.39843865978771        37.2244203695508     
  -1.98572369840794        1.54214975869884        585.370082940067     
  0.200716011866779       0.220692805662174        3.89348334494157     
 -0.226955383911479      -0.487733864845705        30.5836788801672     
  0.230794446602216        1.98971593627567        375.575483093978     
   1.75485654195745       -1.42578691843083        2030.35018746487     
   1.04960356322373        1.73324847438984        39.8918955589369     
  -1.89943480653574       9.603842396291196E-002   1241.69059185734     
  -1.88414131672661      -0.346277083119819        1526.40682164331     
  -1.69943852717853      -0.461017327498250        1128.93983337032     
  0.537391308351229      -0.194959005743505        23.6152605772188     
  0.525662849852351      -0.421278969919436        48.8896277680482     
  -1.56987488892894       -1.17410717501195        1330.55568985395     
   1.12685719371900       -1.10765257255367        565.247558868958     
   1.83098039223371       0.152255463932498        1024.84012287494     
  0.380497934711539      -7.835899569658955E-002   5.36282496543874     
  0.914564647990502        1.02855304409452        3.69848342224819     
  -1.80448544044310      -0.683988114024437        1560.34792622451     
  -1.29174992145266       0.881354042576612        67.2305494576431     
   1.00236174952824      -0.945639355611777        380.393707838459     
   1.88563341305648      -0.146593262378813        1371.41774026652     
  0.131343496239652      -0.205153728599414        5.70095552289035     
  -1.55551652747641      -0.987492201940726        1167.37997072467     
   1.37544565944377        1.57167584273335        10.3921573412319     
  0.697190469540333      -9.778460710157777E-002   34.1808452403779     
  -1.90525712376311       0.567134285200646        946.558041426733     
  -1.56002429601945      -0.591428927373103        921.679588077250     
  -1.52678509192953       -1.35809838872156        1367.38298758433     
  0.111073619174471      -0.824632818686491        70.8420962495723     
   1.68769083454072        1.56640984853114        164.797245226796     
   1.80796230293660        1.99735192268172        162.292436960375     
   1.98499249009656        1.81476020117240        452.717597567825     
   1.60505062423505        1.99697600442067        33.9146826554586     
 -0.190504047013262       0.469342648318064        20.1706043079344     
   1.97612019102909      -0.363967467144847        1823.40468592936     
  0.461254975393893       -1.52238418432619        301.361444989154     
  0.565191465053868       -1.73529883223683        422.384797441497     
 -0.267694622092749       -1.65645487042453        300.245292139589     
  0.800028579784088        1.46475700736621        68.0548579225436     
  0.298781559116934       0.664651956796949        33.5980985826514     
  0.719800436953832       -1.95563223260137        612.019895634268     
 -0.565641052580379       -1.99933120491312        540.357670049561     
  -1.93922443228876       -1.41547593012267        2687.80633960259     
  0.401724636341244       -1.67843414584181        338.850529942908     
  0.947018752775772       0.288124727442252        37.0567853674918     
 -0.176068884536945       -1.80511837636671        338.516299802188     
 -0.240034245249601       -1.48097756269455        238.264835101371     
 -0.406096323359094       -1.78898827994087        383.750606300936     
  0.364877167872234       0.512718846282329        14.8117442564655     
 -4.629761248428554E-002  0.367140654346810        14.4170332307122     
 -0.988776329395398        1.11569437645454        5.86006592710040     
  0.923355861446586       0.467052416123584        14.8694923674538     
 -8.918141064739427E-002  -1.58199191561854        253.978902645474     
  0.827684167567710       0.633582917763464       0.294692877621726     
