 variables= "x","y","fpcb"
 zone i=          12  datapacking=point
  0.000000000000000E+000  0.000000000000000E+000  0.000000000000000E+000
  0.896544641875417      -0.790881816248964       0.000000000000000E+000
 -0.137840052032465       1.295077216132468E-002  0.000000000000000E+000
   1.14042734753748        1.66362788817193       0.000000000000000E+000
  -1.56484245963151       0.230280166173212       0.000000000000000E+000
   1.87459921846689      -0.226701629301159       0.000000000000000E+000
   1.29815589349751       -1.81064701817562       0.000000000000000E+000
  0.287920216988892      -0.998979764284825       0.000000000000000E+000
 -0.197640246314070        1.05619281688852       0.000000000000000E+000
  -1.73961949202234        1.61449175765455       0.000000000000000E+000
 -0.693893097590873       0.581153021462777       0.000000000000000E+000
  -1.17038192798984       -1.28844097072964       0.000000000000000E+000
