 variables= "x","y","fPC"
 zone i=         101  j=         101  datapacking=point
  -2.00000000000000       -2.00000000000000        3609.00000000968     
  -2.00000000000000       -1.96000000000000        3561.16000000982     
  -2.00000000000000       -1.92000000000000        3513.64000000924     
  -2.00000000000000       -1.88000000000000        3466.44000000818     
  -2.00000000000000       -1.84000000000000        3419.56000000683     
  -2.00000000000000       -1.80000000000000        3373.00000000535     
  -2.00000000000000       -1.76000000000000        3326.76000000386     
  -2.00000000000000       -1.72000000000000        3280.84000000243     
  -2.00000000000000       -1.68000000000000        3235.24000000113     
  -2.00000000000000       -1.64000000000000        3189.95999999998     
  -2.00000000000000       -1.60000000000000        3144.99999999903     
  -2.00000000000000       -1.56000000000000        3100.35999999827     
  -2.00000000000000       -1.52000000000000        3056.03999999770     
  -2.00000000000000       -1.48000000000000        3012.03999999731     
  -2.00000000000000       -1.44000000000000        2968.35999999709     
  -2.00000000000000       -1.40000000000000        2924.99999999702     
  -2.00000000000000       -1.36000000000000        2881.95999999708     
  -2.00000000000000       -1.32000000000000        2839.23999999724     
  -2.00000000000000       -1.28000000000000        2796.83999999748     
  -2.00000000000000       -1.24000000000000        2754.75999999778     
  -2.00000000000000       -1.20000000000000        2712.99999999813     
  -2.00000000000000       -1.16000000000000        2671.55999999849     
  -2.00000000000000       -1.12000000000000        2630.43999999886     
  -2.00000000000000       -1.08000000000000        2589.63999999922     
  -2.00000000000000       -1.04000000000000        2549.15999999956     
  -2.00000000000000       -1.00000000000000        2508.99999999986     
  -2.00000000000000      -0.960000000000000        2469.16000000012     
  -2.00000000000000      -0.920000000000000        2429.64000000034     
  -2.00000000000000      -0.880000000000000        2390.44000000051     
  -2.00000000000000      -0.840000000000000        2351.56000000063     
  -2.00000000000000      -0.800000000000000        2313.00000000070     
  -2.00000000000000      -0.760000000000000        2274.76000000072     
  -2.00000000000000      -0.720000000000000        2236.84000000070     
  -2.00000000000000      -0.680000000000000        2199.24000000063     
  -2.00000000000000      -0.640000000000000        2161.96000000053     
  -2.00000000000000      -0.600000000000000        2125.00000000039     
  -2.00000000000000      -0.560000000000000        2088.36000000023     
  -2.00000000000000      -0.520000000000000        2052.04000000004     
  -2.00000000000000      -0.480000000000000        2016.03999999984     
  -2.00000000000000      -0.440000000000000        1980.35999999964     
  -2.00000000000000      -0.400000000000000        1944.99999999943     
  -2.00000000000000      -0.360000000000000        1909.95999999923     
  -2.00000000000000      -0.320000000000000        1875.23999999903     
  -2.00000000000000      -0.280000000000000        1840.83999999885     
  -2.00000000000000      -0.240000000000000        1806.75999999869     
  -2.00000000000000      -0.200000000000000        1772.99999999856     
  -2.00000000000000      -0.160000000000000        1739.55999999845     
  -2.00000000000000      -0.120000000000000        1706.43999999838     
  -2.00000000000000      -8.000000000000007E-002   1673.63999999834     
  -2.00000000000000      -4.000000000000004E-002   1641.15999999833     
  -2.00000000000000       0.000000000000000E+000   1608.99999999837     
  -2.00000000000000       4.000000000000004E-002   1577.15999999845     
  -2.00000000000000       8.000000000000007E-002   1545.63999999857     
  -2.00000000000000       0.120000000000000        1514.43999999872     
  -2.00000000000000       0.160000000000000        1483.55999999892     
  -2.00000000000000       0.200000000000000        1452.99999999916     
  -2.00000000000000       0.240000000000000        1422.75999999943     
  -2.00000000000000       0.280000000000000        1392.83999999974     
  -2.00000000000000       0.320000000000000        1363.24000000007     
  -2.00000000000000       0.360000000000000        1333.96000000043     
  -2.00000000000000       0.400000000000000        1305.00000000082     
  -2.00000000000000       0.440000000000000        1276.36000000122     
  -2.00000000000000       0.480000000000000        1248.04000000163     
  -2.00000000000000       0.520000000000000        1220.04000000204     
  -2.00000000000000       0.560000000000000        1192.36000000244     
  -2.00000000000000       0.600000000000000        1165.00000000284     
  -2.00000000000000       0.640000000000000        1137.96000000321     
  -2.00000000000000       0.680000000000000        1111.24000000355     
  -2.00000000000000       0.720000000000000        1084.84000000385     
  -2.00000000000000       0.760000000000000        1058.76000000410     
  -2.00000000000000       0.800000000000000        1033.00000000429     
  -2.00000000000000       0.840000000000000        1007.56000000441     
  -2.00000000000000       0.880000000000000        982.440000004449     
  -2.00000000000000       0.920000000000000        957.640000004405     
  -2.00000000000000       0.960000000000000        933.160000004267     
  -2.00000000000000        1.00000000000000        909.000000004031     
  -2.00000000000000        1.04000000000000        885.160000003692     
  -2.00000000000000        1.08000000000000        861.640000003247     
  -2.00000000000000        1.12000000000000        838.440000002698     
  -2.00000000000000        1.16000000000000        815.560000002049     
  -2.00000000000000        1.20000000000000        793.000000001307     
  -2.00000000000000        1.24000000000000        770.760000000483     
  -2.00000000000000        1.28000000000000        748.839999999594     
  -2.00000000000000        1.32000000000000        727.239999998660     
  -2.00000000000000        1.36000000000000        705.959999997709     
  -2.00000000000000        1.40000000000000        684.999999996771     
  -2.00000000000000        1.44000000000000        664.359999995886     
  -2.00000000000000        1.48000000000000        644.039999995098     
  -2.00000000000000        1.52000000000000        624.039999994458     
  -2.00000000000000        1.56000000000000        604.359999994023     
  -2.00000000000000        1.60000000000000        584.999999993857     
  -2.00000000000000        1.64000000000000        565.959999994026     
  -2.00000000000000        1.68000000000000        547.239999994603     
  -2.00000000000000        1.72000000000000        528.839999995667     
  -2.00000000000000        1.76000000000000        510.759999997292     
  -2.00000000000000        1.80000000000000        492.999999999556     
  -2.00000000000000        1.84000000000000        475.560000002534     
  -2.00000000000000        1.88000000000000        458.440000006290     
  -2.00000000000000        1.92000000000000        441.640000010884     
  -2.00000000000000        1.96000000000000        425.160000016354     
  -2.00000000000000        2.00000000000000        409.000000022720     
  -1.96000000000000       -2.00000000000000        3421.19065600500     
  -1.96000000000000       -1.96000000000000        3374.61785600584     
  -1.96000000000000       -1.92000000000000        3328.36505600589     
  -1.96000000000000       -1.88000000000000        3282.43225600538     
  -1.96000000000000       -1.84000000000000        3236.81945600453     
  -1.96000000000000       -1.80000000000000        3191.52665600348     
  -1.96000000000000       -1.76000000000000        3146.55385600236     
  -1.96000000000000       -1.72000000000000        3101.90105600125     
  -1.96000000000000       -1.68000000000000        3057.56825600022     
  -1.96000000000000       -1.64000000000000        3013.55545599930     
  -1.96000000000000       -1.60000000000000        2969.86265599854     
  -1.96000000000000       -1.56000000000000        2926.48985599793     
  -1.96000000000000       -1.52000000000000        2883.43705599748     
  -1.96000000000000       -1.48000000000000        2840.70425599719     
  -1.96000000000000       -1.44000000000000        2798.29145599704     
  -1.96000000000000       -1.40000000000000        2756.19865599703     
  -1.96000000000000       -1.36000000000000        2714.42585599712     
  -1.96000000000000       -1.32000000000000        2672.97305599730     
  -1.96000000000000       -1.28000000000000        2631.84025599755     
  -1.96000000000000       -1.24000000000000        2591.02745599785     
  -1.96000000000000       -1.20000000000000        2550.53465599819     
  -1.96000000000000       -1.16000000000000        2510.36185599854     
  -1.96000000000000       -1.12000000000000        2470.50905599890     
  -1.96000000000000       -1.08000000000000        2430.97625599924     
  -1.96000000000000       -1.04000000000000        2391.76345599956     
  -1.96000000000000       -1.00000000000000        2352.87065599985     
  -1.96000000000000      -0.960000000000000        2314.29785600010     
  -1.96000000000000      -0.920000000000000        2276.04505600031     
  -1.96000000000000      -0.880000000000000        2238.11225600047     
  -1.96000000000000      -0.840000000000000        2200.49945600058     
  -1.96000000000000      -0.800000000000000        2163.20665600065     
  -1.96000000000000      -0.760000000000000        2126.23385600067     
  -1.96000000000000      -0.720000000000000        2089.58105600065     
  -1.96000000000000      -0.680000000000000        2053.24825600059     
  -1.96000000000000      -0.640000000000000        2017.23545600049     
  -1.96000000000000      -0.600000000000000        1981.54265600036     
  -1.96000000000000      -0.560000000000000        1946.16985600022     
  -1.96000000000000      -0.520000000000000        1911.11705600005     
  -1.96000000000000      -0.480000000000000        1876.38425599986     
  -1.96000000000000      -0.440000000000000        1841.97145599967     
  -1.96000000000000      -0.400000000000000        1807.87865599948     
  -1.96000000000000      -0.360000000000000        1774.10585599929     
  -1.96000000000000      -0.320000000000000        1740.65305599911     
  -1.96000000000000      -0.280000000000000        1707.52025599895     
  -1.96000000000000      -0.240000000000000        1674.70745599880     
  -1.96000000000000      -0.200000000000000        1642.21465599867     
  -1.96000000000000      -0.160000000000000        1610.04185599857     
  -1.96000000000000      -0.120000000000000        1578.18905599850     
  -1.96000000000000      -8.000000000000007E-002   1546.65625599846     
  -1.96000000000000      -4.000000000000004E-002   1515.44345599845     
  -1.96000000000000       0.000000000000000E+000   1484.55065599848     
  -1.96000000000000       4.000000000000004E-002   1453.97785599854     
  -1.96000000000000       8.000000000000007E-002   1423.72505599864     
  -1.96000000000000       0.120000000000000        1393.79225599878     
  -1.96000000000000       0.160000000000000        1364.17945599895     
  -1.96000000000000       0.200000000000000        1334.88665599916     
  -1.96000000000000       0.240000000000000        1305.91385599940     
  -1.96000000000000       0.280000000000000        1277.26105599968     
  -1.96000000000000       0.320000000000000        1248.92825599999     
  -1.96000000000000       0.360000000000000        1220.91545600032     
  -1.96000000000000       0.400000000000000        1193.22265600068     
  -1.96000000000000       0.440000000000000        1165.84985600105     
  -1.96000000000000       0.480000000000000        1138.79705600144     
  -1.96000000000000       0.520000000000000        1112.06425600183     
  -1.96000000000000       0.560000000000000        1085.65145600223     
  -1.96000000000000       0.600000000000000        1059.55865600262     
  -1.96000000000000       0.640000000000000        1033.78585600300     
  -1.96000000000000       0.680000000000000        1008.33305600336     
  -1.96000000000000       0.720000000000000        983.200256003688     
  -1.96000000000000       0.760000000000000        958.387456003982     
  -1.96000000000000       0.800000000000000        933.894656004231     
  -1.96000000000000       0.840000000000000        909.721856004427     
  -1.96000000000000       0.880000000000000        885.869056004561     
  -1.96000000000000       0.920000000000000        862.336256004627     
  -1.96000000000000       0.960000000000000        839.123456004617     
  -1.96000000000000        1.00000000000000        816.230656004526     
  -1.96000000000000        1.04000000000000        793.657856004350     
  -1.96000000000000        1.08000000000000        771.405056004086     
  -1.96000000000000        1.12000000000000        749.472256003734     
  -1.96000000000000        1.16000000000000        727.859456003295     
  -1.96000000000000        1.20000000000000        706.566656002776     
  -1.96000000000000        1.24000000000000        685.593856002185     
  -1.96000000000000        1.28000000000000        664.941056001535     
  -1.96000000000000        1.32000000000000        644.608256000842     
  -1.96000000000000        1.36000000000000        624.595456000125     
  -1.96000000000000        1.40000000000000        604.902655999414     
  -1.96000000000000        1.44000000000000        585.529855998739     
  -1.96000000000000        1.48000000000000        566.477055998135     
  -1.96000000000000        1.52000000000000        547.744255997645     
  -1.96000000000000        1.56000000000000        529.331455997315     
  -1.96000000000000        1.60000000000000        511.238655997197     
  -1.96000000000000        1.64000000000000        493.465855997345     
  -1.96000000000000        1.68000000000000        476.013055997820     
  -1.96000000000000        1.72000000000000        458.880255998682     
  -1.96000000000000        1.76000000000000        442.067455999990     
  -1.96000000000000        1.80000000000000        425.574656001804     
  -1.96000000000000        1.84000000000000        409.401856004179     
  -1.96000000000000        1.88000000000000        393.549056007159     
  -1.96000000000000        1.92000000000000        378.016256010779     
  -1.96000000000000        1.96000000000000        362.803456015057     
  -1.96000000000000        2.00000000000000        347.910656019988     
  -1.92000000000000       -2.00000000000000        3242.04089600125     
  -1.92000000000000       -1.96000000000000        3196.70969600269     
  -1.92000000000000       -1.92000000000000        3151.69849600327     
  -1.92000000000000       -1.88000000000000        3107.00729600325     
  -1.92000000000000       -1.84000000000000        3062.63609600281     
  -1.92000000000000       -1.80000000000000        3018.58489600212     
  -1.92000000000000       -1.76000000000000        2974.85369600131     
  -1.92000000000000       -1.72000000000000        2931.44249600047     
  -1.92000000000000       -1.68000000000000        2888.35129599966     
  -1.92000000000000       -1.64000000000000        2845.58009599894     
  -1.92000000000000       -1.60000000000000        2803.12889599833     
  -1.92000000000000       -1.56000000000000        2760.99769599784     
  -1.92000000000000       -1.52000000000000        2719.18649599750     
  -1.92000000000000       -1.48000000000000        2677.69529599728     
  -1.92000000000000       -1.44000000000000        2636.52409599718     
  -1.92000000000000       -1.40000000000000        2595.67289599720     
  -1.92000000000000       -1.36000000000000        2555.14169599731     
  -1.92000000000000       -1.32000000000000        2514.93049599750     
  -1.92000000000000       -1.28000000000000        2475.03929599776     
  -1.92000000000000       -1.24000000000000        2435.46809599805     
  -1.92000000000000       -1.20000000000000        2396.21689599837     
  -1.92000000000000       -1.16000000000000        2357.28569599871     
  -1.92000000000000       -1.12000000000000        2318.67449599904     
  -1.92000000000000       -1.08000000000000        2280.38329599937     
  -1.92000000000000       -1.04000000000000        2242.41209599967     
  -1.92000000000000       -1.00000000000000        2204.76089599994     
  -1.92000000000000      -0.960000000000000        2167.42969600017     
  -1.92000000000000      -0.920000000000000        2130.41849600036     
  -1.92000000000000      -0.880000000000000        2093.72729600051     
  -1.92000000000000      -0.840000000000000        2057.35609600061     
  -1.92000000000000      -0.800000000000000        2021.30489600067     
  -1.92000000000000      -0.760000000000000        1985.57369600069     
  -1.92000000000000      -0.720000000000000        1950.16249600067     
  -1.92000000000000      -0.680000000000000        1915.07129600061     
  -1.92000000000000      -0.640000000000000        1880.30009600052     
  -1.92000000000000      -0.600000000000000        1845.84889600040     
  -1.92000000000000      -0.560000000000000        1811.71769600026     
  -1.92000000000000      -0.520000000000000        1777.90649600011     
  -1.92000000000000      -0.480000000000000        1744.41529599994     
  -1.92000000000000      -0.440000000000000        1711.24409599976     
  -1.92000000000000      -0.400000000000000        1678.39289599958     
  -1.92000000000000      -0.360000000000000        1645.86169599940     
  -1.92000000000000      -0.320000000000000        1613.65049599923     
  -1.92000000000000      -0.280000000000000        1581.75929599907     
  -1.92000000000000      -0.240000000000000        1550.18809599893     
  -1.92000000000000      -0.200000000000000        1518.93689599881     
  -1.92000000000000      -0.160000000000000        1488.00569599870     
  -1.92000000000000      -0.120000000000000        1457.39449599863     
  -1.92000000000000      -8.000000000000007E-002   1427.10329599858     
  -1.92000000000000      -4.000000000000004E-002   1397.13209599856     
  -1.92000000000000       0.000000000000000E+000   1367.48089599857     
  -1.92000000000000       4.000000000000004E-002   1338.14969599861     
  -1.92000000000000       8.000000000000007E-002   1309.13849599868     
  -1.92000000000000       0.120000000000000        1280.44729599879     
  -1.92000000000000       0.160000000000000        1252.07609599893     
  -1.92000000000000       0.200000000000000        1224.02489599910     
  -1.92000000000000       0.240000000000000        1196.29369599931     
  -1.92000000000000       0.280000000000000        1168.88249599954     
  -1.92000000000000       0.320000000000000        1141.79129599980     
  -1.92000000000000       0.360000000000000        1115.02009600009     
  -1.92000000000000       0.400000000000000        1088.56889600040     
  -1.92000000000000       0.440000000000000        1062.43769600074     
  -1.92000000000000       0.480000000000000        1036.62649600108     
  -1.92000000000000       0.520000000000000        1011.13529600144     
  -1.92000000000000       0.560000000000000        985.964096001804     
  -1.92000000000000       0.600000000000000        961.112896002169     
  -1.92000000000000       0.640000000000000        936.581696002529     
  -1.92000000000000       0.680000000000000        912.370496002877     
  -1.92000000000000       0.720000000000000        888.479296003207     
  -1.92000000000000       0.760000000000000        864.908096003512     
  -1.92000000000000       0.800000000000000        841.656896003785     
  -1.92000000000000       0.840000000000000        818.725696004018     
  -1.92000000000000       0.880000000000000        796.114496004205     
  -1.92000000000000       0.920000000000000        773.823296004338     
  -1.92000000000000       0.960000000000000        751.852096004411     
  -1.92000000000000        1.00000000000000        730.200896004419     
  -1.92000000000000        1.04000000000000        708.869696004357     
  -1.92000000000000        1.08000000000000        687.858496004224     
  -1.92000000000000        1.12000000000000        667.167296004017     
  -1.92000000000000        1.16000000000000        646.796096003736     
  -1.92000000000000        1.20000000000000        626.744896003388     
  -1.92000000000000        1.24000000000000        607.013696002975     
  -1.92000000000000        1.28000000000000        587.602496002509     
  -1.92000000000000        1.32000000000000        568.511296002003     
  -1.92000000000000        1.36000000000000        549.740096001471     
  -1.92000000000000        1.40000000000000        531.288896000938     
  -1.92000000000000        1.44000000000000        513.157696000424     
  -1.92000000000000        1.48000000000000        495.346495999962     
  -1.92000000000000        1.52000000000000        477.855295999585     
  -1.92000000000000        1.56000000000000        460.684095999329     
  -1.92000000000000        1.60000000000000        443.832895999237     
  -1.92000000000000        1.64000000000000        427.301695999352     
  -1.92000000000000        1.68000000000000        411.090495999721     
  -1.92000000000000        1.72000000000000        395.199296000390     
  -1.92000000000000        1.76000000000000        379.628096001406     
  -1.92000000000000        1.80000000000000        364.376896002810     
  -1.92000000000000        1.84000000000000        349.445696004642     
  -1.92000000000000        1.88000000000000        334.834496006927     
  -1.92000000000000        1.92000000000000        320.543296009681     
  -1.92000000000000        1.96000000000000        306.572096012901     
  -1.92000000000000        2.00000000000000        292.920896016561     
  -1.88000000000000       -2.00000000000000        3071.25273599832     
  -1.88000000000000       -1.96000000000000        3027.13753600026     
  -1.88000000000000       -1.92000000000000        2983.34233600128     
  -1.88000000000000       -1.88000000000000        2939.86713600165     
  -1.88000000000000       -1.84000000000000        2896.71193600156     
  -1.88000000000000       -1.80000000000000        2853.87673600118     
  -1.88000000000000       -1.76000000000000        2811.36153600064     
  -1.88000000000000       -1.72000000000000        2769.16633600002     
  -1.88000000000000       -1.68000000000000        2727.29113599940     
  -1.88000000000000       -1.64000000000000        2685.73593599883     
  -1.88000000000000       -1.60000000000000        2644.50073599834     
  -1.88000000000000       -1.56000000000000        2603.58553599795     
  -1.88000000000000       -1.52000000000000        2562.99033599768     
  -1.88000000000000       -1.48000000000000        2522.71513599752     
  -1.88000000000000       -1.44000000000000        2482.75993599746     
  -1.88000000000000       -1.40000000000000        2443.12473599750     
  -1.88000000000000       -1.36000000000000        2403.80953599762     
  -1.88000000000000       -1.32000000000000        2364.81433599781     
  -1.88000000000000       -1.28000000000000        2326.13913599806     
  -1.88000000000000       -1.24000000000000        2287.78393599834     
  -1.88000000000000       -1.20000000000000        2249.74873599864     
  -1.88000000000000       -1.16000000000000        2212.03353599896     
  -1.88000000000000       -1.12000000000000        2174.63833599927     
  -1.88000000000000       -1.08000000000000        2137.56313599957     
  -1.88000000000000       -1.04000000000000        2100.80793599985     
  -1.88000000000000       -1.00000000000000        2064.37273600010     
  -1.88000000000000      -0.960000000000000        2028.25753600031     
  -1.88000000000000      -0.920000000000000        1992.46233600048     
  -1.88000000000000      -0.880000000000000        1956.98713600062     
  -1.88000000000000      -0.840000000000000        1921.83193600071     
  -1.88000000000000      -0.800000000000000        1886.99673600076     
  -1.88000000000000      -0.760000000000000        1852.48153600078     
  -1.88000000000000      -0.720000000000000        1818.28633600076     
  -1.88000000000000      -0.680000000000000        1784.41113600070     
  -1.88000000000000      -0.640000000000000        1750.85593600061     
  -1.88000000000000      -0.600000000000000        1717.62073600050     
  -1.88000000000000      -0.560000000000000        1684.70553600037     
  -1.88000000000000      -0.520000000000000        1652.11033600022     
  -1.88000000000000      -0.480000000000000        1619.83513600006     
  -1.88000000000000      -0.440000000000000        1587.87993599990     
  -1.88000000000000      -0.400000000000000        1556.24473599973     
  -1.88000000000000      -0.360000000000000        1524.92953599956     
  -1.88000000000000      -0.320000000000000        1493.93433599940     
  -1.88000000000000      -0.280000000000000        1463.25913599924     
  -1.88000000000000      -0.240000000000000        1432.90393599910     
  -1.88000000000000      -0.200000000000000        1402.86873599898     
  -1.88000000000000      -0.160000000000000        1373.15353599887     
  -1.88000000000000      -0.120000000000000        1343.75833599879     
  -1.88000000000000      -8.000000000000007E-002   1314.68313599873     
  -1.88000000000000      -4.000000000000004E-002   1285.92793599869     
  -1.88000000000000       0.000000000000000E+000   1257.49273599868     
  -1.88000000000000       4.000000000000004E-002   1229.37753599870     
  -1.88000000000000       8.000000000000007E-002   1201.58233599875     
  -1.88000000000000       0.120000000000000        1174.10713599882     
  -1.88000000000000       0.160000000000000        1146.95193599892     
  -1.88000000000000       0.200000000000000        1120.11673599905     
  -1.88000000000000       0.240000000000000        1093.60153599921     
  -1.88000000000000       0.280000000000000        1067.40633599940     
  -1.88000000000000       0.320000000000000        1041.53113599961     
  -1.88000000000000       0.360000000000000        1015.97593599984     
  -1.88000000000000       0.400000000000000        990.740736000100     
  -1.88000000000000       0.440000000000000        965.825536000378     
  -1.88000000000000       0.480000000000000        941.230336000672     
  -1.88000000000000       0.520000000000000        916.955136000979     
  -1.88000000000000       0.560000000000000        892.999936001297     
  -1.88000000000000       0.600000000000000        869.364736001618     
  -1.88000000000000       0.640000000000000        846.049536001941     
  -1.88000000000000       0.680000000000000        823.054336002261     
  -1.88000000000000       0.720000000000000        800.379136002569     
  -1.88000000000000       0.760000000000000        778.023936002863     
  -1.88000000000000       0.800000000000000        755.988736003134     
  -1.88000000000000       0.840000000000000        734.273536003378     
  -1.88000000000000       0.880000000000000        712.878336003586     
  -1.88000000000000       0.920000000000000        691.803136003755     
  -1.88000000000000       0.960000000000000        671.047936003878     
  -1.88000000000000        1.00000000000000        650.612736003951     
  -1.88000000000000        1.04000000000000        630.497536003967     
  -1.88000000000000        1.08000000000000        610.702336003926     
  -1.88000000000000        1.12000000000000        591.227136003824     
  -1.88000000000000        1.16000000000000        572.071936003662     
  -1.88000000000000        1.20000000000000        553.236736003442     
  -1.88000000000000        1.24000000000000        534.721536003167     
  -1.88000000000000        1.28000000000000        516.526336002844     
  -1.88000000000000        1.32000000000000        498.651136002483     
  -1.88000000000000        1.36000000000000        481.095936002097     
  -1.88000000000000        1.40000000000000        463.860736001702     
  -1.88000000000000        1.44000000000000        446.945536001318     
  -1.88000000000000        1.48000000000000        430.350336000966     
  -1.88000000000000        1.52000000000000        414.075136000675     
  -1.88000000000000        1.56000000000000        398.119936000473     
  -1.88000000000000        1.60000000000000        382.484736000393     
  -1.88000000000000        1.64000000000000        367.169536000468     
  -1.88000000000000        1.68000000000000        352.174336000736     
  -1.88000000000000        1.72000000000000        337.499136001229     
  -1.88000000000000        1.76000000000000        323.143936001982     
  -1.88000000000000        1.80000000000000        309.108736003023     
  -1.88000000000000        1.84000000000000        295.393536004374     
  -1.88000000000000        1.88000000000000        281.998336006047     
  -1.88000000000000        1.92000000000000        268.923136008040     
  -1.88000000000000        1.96000000000000        256.167936010331     
  -1.88000000000000        2.00000000000000        243.732736012878     
  -1.84000000000000       -2.00000000000000        2908.53433599609     
  -1.84000000000000       -1.96000000000000        2865.60953599843     
  -1.84000000000000       -1.92000000000000        2823.00473599982     
  -1.84000000000000       -1.88000000000000        2780.71993600052     
  -1.84000000000000       -1.84000000000000        2738.75513600072     