 variables= "x","y","fPC"
 zone i=         101  j=         101  datapacking=point
  -2.00000000000000       -2.00000000000000       -6.30822120506888     
  -2.00000000000000       -1.96000000000000       -5.64374434582966     
  -2.00000000000000       -1.92000000000000       -5.00354045269988     
  -2.00000000000000       -1.88000000000000       -4.38723390951153     
  -2.00000000000000       -1.84000000000000       -3.79444910009661     
  -2.00000000000000       -1.80000000000000       -3.22481040828711     
  -2.00000000000000       -1.76000000000000       -2.67794221791500     
  -2.00000000000000       -1.72000000000000       -2.15346891281229     
  -2.00000000000000       -1.68000000000000       -1.65101487681097     
  -2.00000000000000       -1.64000000000000       -1.17020449374301     
  -2.00000000000000       -1.60000000000000      -0.710662147440408     
  -2.00000000000000       -1.56000000000000      -0.272012221735173     
  -2.00000000000000       -1.52000000000000       0.146120899540738     
  -2.00000000000000       -1.48000000000000       0.544112832555307     
  -2.00000000000000       -1.44000000000000       0.922339193476556     
  -2.00000000000000       -1.40000000000000        1.28117559847249     
  -2.00000000000000       -1.36000000000000        1.62099766371113     
  -2.00000000000000       -1.32000000000000        1.94218100536049     
  -2.00000000000000       -1.28000000000000        2.24510123958855     
  -2.00000000000000       -1.24000000000000        2.53013398256335     
  -2.00000000000000       -1.20000000000000        2.79765485045290     
  -2.00000000000000       -1.16000000000000        3.04803945942519     
  -2.00000000000000       -1.12000000000000        3.28166342564825     
  -2.00000000000000       -1.08000000000000        3.49890236529008     
  -2.00000000000000       -1.04000000000000        3.70013189451869     
  -2.00000000000000       -1.00000000000000        3.88572762950210     
  -2.00000000000000      -0.960000000000000        4.05606518640830     
  -2.00000000000000      -0.920000000000000        4.21152018140533     
  -2.00000000000000      -0.880000000000000        4.35246823066117     
  -2.00000000000000      -0.840000000000000        4.47928495034385     
  -2.00000000000000      -0.800000000000000        4.59234595662137     
  -2.00000000000000      -0.760000000000000        4.69202686566175     
  -2.00000000000000      -0.720000000000000        4.77870329363299     
  -2.00000000000000      -0.680000000000000        4.85275085670311     
  -2.00000000000000      -0.640000000000000        4.91454517104012     
  -2.00000000000000      -0.600000000000000        4.96446185281202     
  -2.00000000000000      -0.560000000000000        5.00287651818683     
  -2.00000000000000      -0.520000000000000        5.03016478333255     
  -2.00000000000000      -0.480000000000000        5.04670226441720     
  -2.00000000000000      -0.440000000000000        5.05286457760879     
  -2.00000000000000      -0.400000000000000        5.04902733907532     
  -2.00000000000000      -0.360000000000000        5.03556616498482     
  -2.00000000000000      -0.320000000000000        5.01285667150528     
  -2.00000000000000      -0.280000000000000        4.98127447480472     
  -2.00000000000000      -0.240000000000000        4.94119519105115     
  -2.00000000000000      -0.200000000000000        4.89299443641258     
  -2.00000000000000      -0.160000000000000        4.83704782705701     
  -2.00000000000000      -0.120000000000000        4.77373097915247     
  -2.00000000000000      -8.000000000000007E-002   4.70341950886696     
  -2.00000000000000      -4.000000000000004E-002   4.62648903236849     
  -2.00000000000000       0.000000000000000E+000   4.54331516582507     
  -2.00000000000000       4.000000000000004E-002   4.45427352540471     
  -2.00000000000000       8.000000000000007E-002   4.35973972727542     
  -2.00000000000000       0.120000000000000        4.26008938760521     
  -2.00000000000000       0.160000000000000        4.15569812256210     
  -2.00000000000000       0.200000000000000        4.04694154831409     
  -2.00000000000000       0.240000000000000        3.93419528102919     
  -2.00000000000000       0.280000000000000        3.81783493687541     
  -2.00000000000000       0.320000000000000        3.69823613202077     
  -2.00000000000000       0.360000000000000        3.57577448263327     
  -2.00000000000000       0.400000000000000        3.45082560488093     
  -2.00000000000000       0.440000000000000        3.32376511493175     
  -2.00000000000000       0.480000000000000        3.19496862895374     
  -2.00000000000000       0.520000000000000        3.06481176311492     
  -2.00000000000000       0.560000000000000        2.93367013358329     
  -2.00000000000000       0.600000000000000        2.80191935652687     
  -2.00000000000000       0.640000000000000        2.66993504811367     
  -2.00000000000000       0.680000000000000        2.53809282451169     
  -2.00000000000000       0.720000000000000        2.40676830188895     
  -2.00000000000000       0.760000000000000        2.27633709641345     
  -2.00000000000000       0.800000000000000        2.14717482425321     
  -2.00000000000000       0.840000000000000        2.01965710157624     
  -2.00000000000000       0.880000000000000        1.89415954455055     
  -2.00000000000000       0.920000000000000        1.77105776934415     
  -2.00000000000000       0.960000000000000        1.65072739212504     
  -2.00000000000000        1.00000000000000        1.53354402906124     
  -2.00000000000000        1.04000000000000        1.41988329632076     
  -2.00000000000000        1.08000000000000        1.31012081007162     
  -2.00000000000000        1.12000000000000        1.20463218648181     
  -2.00000000000000        1.16000000000000        1.10379304171935     
  -2.00000000000000        1.20000000000000        1.00797899195225     
  -2.00000000000000        1.24000000000000       0.917565653348517     
  -2.00000000000000        1.28000000000000       0.832928642076171     
  -2.00000000000000        1.32000000000000       0.754443574303215     
  -2.00000000000000        1.36000000000000       0.682486066197660     
  -2.00000000000000        1.40000000000000       0.617431733927520     
  -2.00000000000000        1.44000000000000       0.559656193660797     
  -2.00000000000000        1.48000000000000       0.509535061565509     
  -2.00000000000000        1.52000000000000       0.467443953809664     
  -2.00000000000000        1.56000000000000       0.433758486561274     
  -2.00000000000000        1.60000000000000       0.408854275988344     
  -2.00000000000000        1.64000000000000       0.393106938258889     
  -2.00000000000000        1.68000000000000       0.386892089540920     
  -2.00000000000000        1.72000000000000       0.390585346002442     
  -2.00000000000000        1.76000000000000       0.404562323811472     
  -2.00000000000000        1.80000000000000       0.429198639136016     
  -2.00000000000000        1.84000000000000       0.464869908144085     
  -2.00000000000000        1.88000000000000       0.511951747003690     
  -2.00000000000000        1.92000000000000       0.570819771882841     
  -2.00000000000000        1.96000000000000       0.641849598949547     
  -2.00000000000000        2.00000000000000       0.725416844371821     
  -1.96000000000000       -2.00000000000000       -5.82887475830605     
  -1.96000000000000       -1.96000000000000       -5.18118475731386     
  -1.96000000000000       -1.92000000000000       -4.55754135700607     
  -1.96000000000000       -1.88000000000000       -3.95756894121464     
  -1.96000000000000       -1.84000000000000       -3.38089189377160     
  -1.96000000000000       -1.80000000000000       -2.82713459850889     
  -1.96000000000000       -1.76000000000000       -2.29592143925854     
  -1.96000000000000       -1.72000000000000       -1.78687679985252     
  -1.96000000000000       -1.68000000000000       -1.29962506412282     
  -1.96000000000000       -1.64000000000000      -0.833790615901439     
  -1.96000000000000       -1.60000000000000      -0.388997839020363     
  -1.96000000000000       -1.56000000000000       3.512888268842307E-002
  -1.96000000000000       -1.52000000000000       0.438965165392927     
  -1.96000000000000       -1.48000000000000       0.822886625261152     
  -1.96000000000000       -1.44000000000000        1.18726887846112     
  -1.96000000000000       -1.40000000000000        1.53248754116084     
  -1.96000000000000       -1.36000000000000        1.85891822952831     
  -1.96000000000000       -1.32000000000000        2.16693655973155     
  -1.96000000000000       -1.28000000000000        2.45691814793857     
  -1.96000000000000       -1.24000000000000        2.72923861031738     
  -1.96000000000000       -1.20000000000000        2.98427356303599     
  -1.96000000000000       -1.16000000000000        3.22239862226241     
  -1.96000000000000       -1.12000000000000        3.44398940416465     
  -1.96000000000000       -1.08000000000000        3.64942152491071     
  -1.96000000000000       -1.04000000000000        3.83907060066862     
  -1.96000000000000       -1.00000000000000        4.01331224760638     
  -1.96000000000000      -0.960000000000000        4.17252208189201     
  -1.96000000000000      -0.920000000000000        4.31707571969350     
  -1.96000000000000      -0.880000000000000        4.44734877717888     
  -1.96000000000000      -0.840000000000000        4.56371687051615     
  -1.96000000000000      -0.800000000000000        4.66655561587332     
  -1.96000000000000      -0.760000000000000        4.75624062941840     
  -1.96000000000000      -0.720000000000000        4.83314752731941     
  -1.96000000000000      -0.680000000000000        4.89765192574435     
  -1.96000000000000      -0.640000000000000        4.95012944086124     
  -1.96000000000000      -0.600000000000000        4.99095568883808     
  -1.96000000000000      -0.560000000000000        5.02050628584289     
  -1.96000000000000      -0.520000000000000        5.03915684804366     
  -1.96000000000000      -0.480000000000000        5.04728299160843     
  -1.96000000000000      -0.440000000000000        5.04526033270519     
  -1.96000000000000      -0.400000000000000        5.03346448750195     
  -1.96000000000000      -0.360000000000000        5.01227107216673     
  -1.96000000000000      -0.320000000000000        4.98205570286754     
  -1.96000000000000      -0.280000000000000        4.94319399577239     
  -1.96000000000000      -0.240000000000000        4.89606156704928     
  -1.96000000000000      -0.200000000000000        4.84103403286623     
  -1.96000000000000      -0.160000000000000        4.77848700939125     
  -1.96000000000000      -0.120000000000000        4.70879611279235     
  -1.96000000000000      -8.000000000000007E-002   4.63233695923753     
  -1.96000000000000      -4.000000000000004E-002   4.54948516489481     
  -1.96000000000000       0.000000000000000E+000   4.46061634593220     
  -1.96000000000000       4.000000000000004E-002   4.36610611851771     
  -1.96000000000000       8.000000000000007E-002   4.26633009881935     
  -1.96000000000000       0.120000000000000        4.16166390300513     
  -1.96000000000000       0.160000000000000        4.05248314724307     
  -1.96000000000000       0.200000000000000        3.93916344770116     
  -1.96000000000000       0.240000000000000        3.82208042054742     
  -1.96000000000000       0.280000000000000        3.70160968194987     
  -1.96000000000000       0.320000000000000        3.57812684807650     
  -1.96000000000000       0.360000000000000        3.45200753509534     
  -1.96000000000000       0.400000000000000        3.32362735917439     
  -1.96000000000000       0.440000000000000        3.19336193648166     
  -1.96000000000000       0.480000000000000        3.06158688318516     
  -1.96000000000000       0.520000000000000        2.92867781545291     
  -1.96000000000000       0.560000000000000        2.79501034945291     
  -1.96000000000000       0.600000000000000        2.66096010135318     
  -1.96000000000000       0.640000000000000        2.52690268732172     
  -1.96000000000000       0.680000000000000        2.39321372352654     
  -1.96000000000000       0.720000000000000        2.26026882613566     
  -1.96000000000000       0.760000000000000        2.12844361131708     
  -1.96000000000000       0.800000000000000        1.99811369523882     
  -1.96000000000000       0.840000000000000        1.86965469406889     
  -1.96000000000000       0.880000000000000        1.74344222397529     
  -1.96000000000000       0.920000000000000        1.61985190112603     
  -1.96000000000000       0.960000000000000        1.49925934168914     
  -1.96000000000000        1.00000000000000        1.38204016183261     
  -1.96000000000000        1.04000000000000        1.26856997772446     
  -1.96000000000000        1.08000000000000        1.15922440553269     
  -1.96000000000000        1.12000000000000        1.05437906142532     
  -1.96000000000000        1.16000000000000       0.954409561570364     
  -1.96000000000000        1.20000000000000       0.859691522135825     
  -1.96000000000000        1.24000000000000       0.770600559289713     
  -1.96000000000000        1.28000000000000       0.687512289200042     
  -1.96000000000000        1.32000000000000       0.610802328034819     
  -1.96000000000000        1.36000000000000       0.540846291962056     
  -1.96000000000000        1.40000000000000       0.478019797149763     
  -1.96000000000000        1.44000000000000       0.422698459765951     
  -1.96000000000000        1.48000000000000       0.375257895978630     
  -1.96000000000000        1.52000000000000       0.336073721955810     
  -1.96000000000000        1.56000000000000       0.305521553865499     
  -1.96000000000000        1.60000000000000       0.283977007875713     
  -1.96000000000000        1.64000000000000       0.271815700154458     
  -1.96000000000000        1.68000000000000       0.269413246869745     
  -1.96000000000000        1.72000000000000       0.277145264189585     
  -1.96000000000000        1.76000000000000       0.295387368281989     
  -1.96000000000000        1.80000000000000       0.324515175314962     
  -1.96000000000000        1.84000000000000       0.364904301456522     
  -1.96000000000000        1.88000000000000       0.416930362874675     
  -1.96000000000000        1.92000000000000       0.480968975737436     
  -1.96000000000000        1.96000000000000       0.557395756212806     
  -1.96000000000000        2.00000000000000       0.646586320468804     
  -1.92000000000000       -2.00000000000000       -5.36616817505853     
  -1.92000000000000       -1.96000000000000       -4.73505150408483     
  -1.92000000000000       -1.92000000000000       -4.12775506837045     
  -1.92000000000000       -1.88000000000000       -3.54390325174739     
  -1.92000000000000       -1.84000000000000       -2.98312043804765     
  -1.92000000000000       -1.80000000000000       -2.44503101110320     
  -1.92000000000000       -1.76000000000000       -1.92925935474604     
  -1.92000000000000       -1.72000000000000       -1.43542985280815     
  -1.92000000000000       -1.68000000000000      -0.963166889121527     
  -1.92000000000000       -1.64000000000000      -0.512094847518160     
  -1.92000000000000       -1.60000000000000      -8.183811183003709E-002
  -1.92000000000000       -1.56000000000000       0.327978934110848     
  -1.92000000000000       -1.52000000000000       0.717731906472510     
  -1.92000000000000       -1.48000000000000        1.08779642142296     
  -1.92000000000000       -1.44000000000000        1.43854809513020     
  -1.92000000000000       -1.40000000000000        1.77036254376225     
  -1.92000000000000       -1.36000000000000        2.08361538348711     
  -1.92000000000000       -1.32000000000000        2.37868223047281     
  -1.92000000000000       -1.28000000000000        2.65593870088733     
  -1.92000000000000       -1.24000000000000        2.91576041089871     
  -1.92000000000000       -1.20000000000000        3.15852297667494     
  -1.92000000000000       -1.16000000000000        3.38460201438405     
  -1.92000000000000       -1.12000000000000        3.59437314019402     
  -1.92000000000000       -1.08000000000000        3.78821197027290     
  -1.92000000000000       -1.04000000000000        3.96649412078866     
  -1.92000000000000       -1.00000000000000        4.12959520790934     
  -1.92000000000000      -0.960000000000000        4.27789084780294     
  -1.92000000000000      -0.920000000000000        4.41175665663746     
  -1.92000000000000      -0.880000000000000        4.53156825058093     
  -1.92000000000000      -0.840000000000000        4.63770124580135     
  -1.92000000000000      -0.800000000000000        4.73053125846673     
  -1.92000000000000      -0.760000000000000        4.81043390474508     
  -1.92000000000000      -0.720000000000000        4.87778480080441     
  -1.92000000000000      -0.680000000000000        4.93295956281273     
  -1.92000000000000      -0.640000000000000        4.97633380693806     
  -1.92000000000000      -0.600000000000000        5.00828314934840     
  -1.92000000000000      -0.560000000000000        5.02918320621176     
  -1.92000000000000      -0.520000000000000        5.03940959369615     
  -1.92000000000000      -0.480000000000000        5.03933792796959     
  -1.92000000000000      -0.440000000000000        5.02934382520008     
  -1.92000000000000      -0.400000000000000        5.00980290155564     
  -1.92000000000000      -0.360000000000000        4.98109077320426     
  -1.92000000000000      -0.320000000000000        4.94358305631398     
  -1.92000000000000      -0.280000000000000        4.89765536705279     
  -1.92000000000000      -0.240000000000000        4.84368332158870     
  -1.92000000000000      -0.200000000000000        4.78204253608973     
  -1.92000000000000      -0.160000000000000        4.71310862672389     
  -1.92000000000000      -0.120000000000000        4.63725720965918     
  -1.92000000000000      -8.000000000000007E-002   4.55486390106362     
  -1.92000000000000      -4.000000000000004E-002   4.46630431710522     
  -1.92000000000000       0.000000000000000E+000   4.37195407395198     
  -1.92000000000000       4.000000000000004E-002   4.27218878777192     
  -1.92000000000000       8.000000000000007E-002   4.16738407473305     
  -1.92000000000000       0.120000000000000        4.05791555100338     
  -1.92000000000000       0.160000000000000        3.94415883275091     
  -1.92000000000000       0.200000000000000        3.82648953614367     
  -1.92000000000000       0.240000000000000        3.70528327734965     
  -1.92000000000000       0.280000000000000        3.58091567253687     
  -1.92000000000000       0.320000000000000        3.45376233787335     
  -1.92000000000000       0.360000000000000        3.32419888952708     
  -1.92000000000000       0.400000000000000        3.19260094366608     
  -1.92000000000000       0.440000000000000        3.05934411645837     
  -1.92000000000000       0.480000000000000        2.92480402407194     
  -1.92000000000000       0.520000000000000        2.78935628267482     
  -1.92000000000000       0.560000000000000        2.65337650843500     
  -1.92000000000000       0.600000000000000        2.51724031752051     
  -1.92000000000000       0.640000000000000        2.38132332609936     
  -1.92000000000000       0.680000000000000        2.24600115033954     
  -1.92000000000000       0.720000000000000        2.11164940640908     
  -1.92000000000000       0.760000000000000        1.97864371047598     
  -1.92000000000000       0.800000000000000        1.84735967870826     
  -1.92000000000000       0.840000000000000        1.71817292727392     
  -1.92000000000000       0.880000000000000        1.59145907234097     
  -1.92000000000000       0.920000000000000        1.46759373007742     
  -1.92000000000000       0.960000000000000        1.34695251665130     
  -1.92000000000000        1.00000000000000        1.22991104823059     
  -1.92000000000000        1.04000000000000        1.11684494098333     
  -1.92000000000000        1.08000000000000        1.00812981107751     
  -1.92000000000000        1.12000000000000       0.904141274681140     
  -1.92000000000000        1.16000000000000       0.805254947962241     
  -1.92000000000000        1.20000000000000       0.711846447088819     
  -1.92000000000000        1.24000000000000       0.624291388228884     
  -1.92000000000000        1.28000000000000       0.542965387550446     
  -1.92000000000000        1.32000000000000       0.468244061221518     
  -1.92000000000000        1.36000000000000       0.400503025410104     
  -1.92000000000000        1.40000000000000       0.340117896284221     
  -1.92000000000000        1.44000000000000       0.287464290011875     
  -1.92000000000000        1.48000000000000       0.242917822761081     
  -1.92000000000000        1.52000000000000       0.206854110699844     
  -1.92000000000000        1.56000000000000       0.179648769996178     
  -1.92000000000000        1.60000000000000       0.161677416818090     
  -1.92000000000000        1.64000000000000       0.153315667333595     
  -1.92000000000000        1.68000000000000       0.154939137710695     
  -1.92000000000000        1.72000000000000       0.166923444117412     
  -1.92000000000000        1.76000000000000       0.189644202721748     
  -1.92000000000000        1.80000000000000       0.223477029691714     
  -1.92000000000000        1.84000000000000       0.268797541195323     
  -1.92000000000000        1.88000000000000       0.325981353400583     
  -1.92000000000000        1.92000000000000       0.395404082475509     
  -1.92000000000000        1.96000000000000       0.477441344588104     
  -1.92000000000000        2.00000000000000       0.572468755906386     
  -1.88000000000000       -2.00000000000000       -4.91984479072726     
  -1.88000000000000       -1.96000000000000       -4.30508792154348     
  -1.88000000000000       -1.92000000000000       -3.71392492219397     
  -1.88000000000000       -1.88000000000000       -3.14598017651072     
  -1.88000000000000       -1.84000000000000       -2.60087806832572     
  -1.88000000000000       -1.80000000000000       -2.07824298147096     
  -1.88000000000000       -1.76000000000000       -1.57769929977842     
  -1.88000000000000       -1.72000000000000       -1.09887140708011     
  -1.88000000000000       -1.68000000000000      -0.641383687207999     
  -1.88000000000000       -1.64000000000000      -0.204860523994093     
  -1.88000000000000       -1.60000000000000       0.211073698729629     
  -1.88000000000000       -1.56000000000000       0.606794597131175     
  -1.88000000000000       -1.52000000000000       0.982677787378557     
  -1.88000000000000       -1.48000000000000        1.33909888563978     
  -1.88000000000000       -1.44000000000000        1.67643350808286     
  -1.88000000000000       -1.40000000000000        1.99505727087580     
  -1.88000000000000       -1.36000000000000        2.29534579018661     
  -1.88000000000000       -1.32000000000000        2.57767468218332     
  -1.88000000000000       -1.28000000000000        2.84241956303391     
  -1.88000000000000       -1.24000000000000        3.08995604890642     
  -1.88000000000000       -1.20000000000000        3.32065975596883     
  -1.88000000000000       -1.16000000000000        3.53490630038918     
  -1.88000000000000       -1.12000000000000        3.73307129833546     
  -1.88000000000000       -1.08000000000000        3.91553036597569     
  -1.88000000000000       -1.04000000000000        4.08265911947787     
  -1.88000000000000       -1.00000000000000        4.23483317501002     
  -1.88000000000000      -0.960000000000000        4.37242814874016     
  -1.88000000000000      -0.920000000000000        4.49581965683628     
  -1.88000000000000      -0.880000000000000        4.60538331546639     
  -1.88000000000000      -0.840000000000000        4.70149474079852     
  -1.88000000000000      -0.800000000000000        4.78452954900066     
  -1.88000000000000      -0.760000000000000        4.85486335624084     
  -1.88000000000000      -0.720000000000000        4.91287177868705     
  -1.88000000000000      -0.680000000000000        4.95893043250732     
  -1.88000000000000      -0.640000000000000        4.99341493386964     
  -1.88000000000000      -0.600000000000000        5.01670089894204     
  -1.88000000000000      -0.560000000000000        5.02916394389251     
  -1.88000000000000      -0.520000000000000        5.03117968488908     
  -1.88000000000000      -0.480000000000000        5.02312373809975     
  -1.88000000000000      -0.440000000000000        5.00537171969253     
  -1.88000000000000      -0.400000000000000        4.97829924583544     
  -1.88000000000000      -0.360000000000000        4.94228193269647     
  -1.88000000000000      -0.320000000000000        4.89769539644365     
  -1.88000000000000      -0.280000000000000        4.84491525324498     
  -1.88000000000000      -0.240000000000000        4.78431711926848     
  -1.88000000000000      -0.200000000000000        4.71627661068215     
  -1.88000000000000      -0.160000000000000        4.64116934365400     
  -1.88000000000000      -0.120000000000000        4.55937093435205     
  -1.88000000000000      -8.000000000000007E-002   4.47125699894431     
  -1.88000000000000      -4.000000000000004E-002   4.37720315359877     
  -1.88000000000000       0.000000000000000E+000   4.27758501448347     
  -1.88000000000000       4.000000000000004E-002   4.17277819776640     
  -1.88000000000000       8.000000000000007E-002   4.06315831961557     
  -1.88000000000000       0.120000000000000        3.94910099619901     
  -1.88000000000000       0.160000000000000        3.83098184368470     
  -1.88000000000000       0.200000000000000        3.70917647824068     
  -1.88000000000000       0.240000000000000        3.58406051603494     
  -1.88000000000000       0.280000000000000        3.45600957323551     
  -1.88000000000000       0.320000000000000        3.32539926601038     
  -1.88000000000000       0.360000000000000        3.19260521052756     
  -1.88000000000000       0.400000000000000        3.05800302295508     
  -1.88000000000000       0.440000000000000        2.92196831946093     
  -1.88000000000000       0.480000000000000        2.78487671621314     
  -1.88000000000000       0.520000000000000        2.64710382937970     
  -1.88000000000000       0.560000000000000        2.50902527512863     
  -1.88000000000000       0.600000000000000        2.37101666962795     
  -1.88000000000000       0.640000000000000        2.23345362904565     
  -1.88000000000000       0.680000000000000        2.09671176954976     
  -1.88000000000000       0.720000000000000        1.96116670730828     
  -1.88000000000000       0.760000000000000        1.82719405848921     
  -1.88000000000000       0.800000000000000        1.69516943926058     
  -1.88000000000000       0.840000000000000        1.56546846579040     
  -1.88000000000000       0.880000000000000        1.43846675424666     
  -1.88000000000000       0.920000000000000        1.31453992079739     
  -1.88000000000000       0.960000000000000        1.19406358161059     
  -1.88000000000000        1.00000000000000        1.07741335285427     
  -1.88000000000000        1.04000000000000       0.964964850696448     
  -1.88000000000000        1.08000000000000       0.857093691305128     
  -1.88000000000000        1.12000000000000       0.754175490848324     
  -1.88000000000000        1.16000000000000       0.656585865494044     
  -1.88000000000000        1.20000000000000       0.564700431410298     
  -1.88000000000000        1.24000000000000       0.478894804765099     
  -1.88000000000000        1.28000000000000       0.399544601726455     
  -1.88000000000000        1.32000000000000       0.327025438462379     
  -1.88000000000000        1.36000000000000       0.261712931140877     
  -1.88000000000000        1.40000000000000       0.203982695929962     
  -1.88000000000000        1.44000000000000       0.154210348997643     
  -1.88000000000000        1.48000000000000       0.112771506511931     
  -1.88000000000000        1.52000000000000       8.004178464083633E-002
  -1.88000000000000        1.56000000000000       5.639679955237398E-002
  -1.88000000000000        1.60000000000000       4.221216741454636E-002
  -1.88000000000000        1.64000000000000       3.786350439536612E-002
  -1.88000000000000        1.68000000000000       4.372642666284543E-002
  -1.88000000000000        1.72000000000000       6.017655038499381E-002
  -1.88000000000000        1.76000000000000       8.758949172982256E-002
  -1.88000000000000        1.80000000000000       0.126340866865339     
  -1.88000000000000        1.84000000000000       0.176806291959558     
  -1.88000000000000        1.88000000000000       0.239361383180485     
  -1.88000000000000        1.92000000000000       0.314381756696136     
  -1.88000000000000        1.96000000000000       0.402243028674516     
  -1.88000000000000        2.00000000000000       0.503320815283638     
  -1.84000000000000       -2.00000000000000       -4.48964794071318     
  -1.84000000000000       -1.96000000000000       -3.89103734509076     
  -1.84000000000000       -1.92000000000000       -3.31579425387756     
  -1.84000000000000       -1.88000000000000       -2.76354305090555     
  -1.84000000000000       -1.84000000000000       -2.23390812000674     