 variables= "x","y","fpcb"
 zone i=          20  datapacking=point
   1.38829707273365       0.535682064321189       0.000000000000000E+000
  0.983901446322704        1.45845507787261       0.000000000000000E+000
  0.556608442298692        1.12949387898156       0.000000000000000E+000
   1.54308976432691       0.403624047013176       0.000000000000000E+000
   1.70966908053964       0.709358175843859       0.000000000000000E+000
  0.283236704838681       0.807861482573814       0.000000000000000E+000
  0.734298253186005        1.10293766941934       0.000000000000000E+000
  0.850741394138579       0.948410022219219       0.000000000000000E+000
   1.03561137647209        1.30224350353066       0.000000000000000E+000
   1.14540439792587        1.68156388613868       0.000000000000000E+000
   1.31171595819980        1.54423438299644       0.000000000000000E+000
  0.385109518775234       0.322275060375259       0.000000000000000E+000
   1.66318129236068        1.73330299309889       0.000000000000000E+000
  0.369669164205218        1.74309653963511       0.000000000000000E+000
  0.652700034286261        1.65092015247241       0.000000000000000E+000
   1.71526737873033        1.40973325782438       0.000000000000000E+000
  0.784563195078205       0.558061061279381       0.000000000000000E+000
  0.398538348645451        1.42295902304823       0.000000000000000E+000
  0.543674201905863       0.756753788180275       0.000000000000000E+000
   1.08581431568562       0.607602923974604       0.000000000000000E+000
