 variables= "x","y","f"
 zone i=         101  j=         101  datapacking=point
  -2.00000000000000       -2.00000000000000      -0.653643620863612     
  -2.00000000000000       -1.96000000000000      -0.683384803583336     
  -2.00000000000000       -1.92000000000000      -0.712032716398310     
  -2.00000000000000       -1.88000000000000      -0.739541528759258     
  -2.00000000000000       -1.84000000000000      -0.765867232434637     
  -2.00000000000000       -1.80000000000000      -0.790967711914417     
  -2.00000000000000       -1.76000000000000      -0.814802811785913     
  -2.00000000000000       -1.72000000000000      -0.837334400973880     
  -2.00000000000000       -1.68000000000000      -0.858526433742102     
  -2.00000000000000       -1.64000000000000      -0.878345007358874     
  -2.00000000000000       -1.60000000000000      -0.896758416334147     
  -2.00000000000000       -1.56000000000000      -0.913737203141545     
  -2.00000000000000       -1.52000000000000      -0.929254205344123     
  -2.00000000000000       -1.48000000000000      -0.943284599048476     
  -2.00000000000000       -1.44000000000000      -0.955805938617666     
  -2.00000000000000       -1.40000000000000      -0.966798192579461     
  -2.00000000000000       -1.36000000000000      -0.976243775672410     
  -2.00000000000000       -1.32000000000000      -0.984127576978514     
  -2.00000000000000       -1.28000000000000      -0.990436984097473     
  -2.00000000000000       -1.24000000000000      -0.995161903323830     
  -2.00000000000000       -1.20000000000000      -0.998294775794753     
  -2.00000000000000       -1.16000000000000      -0.999830589582598     
  -2.00000000000000       -1.12000000000000      -0.999766887712928     
  -2.00000000000000       -1.08000000000000      -0.998103772095146     
  -2.00000000000000       -1.04000000000000      -0.994843903359459     
  -2.00000000000000       -1.00000000000000      -0.989992496600445     
  -2.00000000000000      -0.960000000000000      -0.983557313034006     
  -2.00000000000000      -0.920000000000000      -0.975548647581083     
  -2.00000000000000      -0.880000000000000      -0.965979312397975     
  -2.00000000000000      -0.840000000000000      -0.954864616379626     
  -2.00000000000000      -0.800000000000000      -0.942222340668658     
  -2.00000000000000      -0.760000000000000      -0.928072710209333     
  -2.00000000000000      -0.720000000000000      -0.912438361391958     
  -2.00000000000000      -0.680000000000000      -0.895344305839492     
  -2.00000000000000      -0.640000000000000      -0.876817890394281     
  -2.00000000000000      -0.600000000000000      -0.856888753368947     
  -2.00000000000000      -0.560000000000000      -0.835588777131408     
  -2.00000000000000      -0.520000000000000      -0.812952037099890     
  -2.00000000000000      -0.480000000000000      -0.789014747229531     
  -2.00000000000000      -0.440000000000000      -0.763815202077774     
  -2.00000000000000      -0.400000000000000      -0.737393715541245     
  -2.00000000000000      -0.360000000000000      -0.709792556362121     
  -2.00000000000000      -0.320000000000000      -0.681055880507153     
  -2.00000000000000      -0.280000000000000      -0.651229660527546     
  -2.00000000000000      -0.240000000000000      -0.620361612012680     
  -2.00000000000000      -0.200000000000000      -0.588501117255346     
  -2.00000000000000      -0.160000000000000      -0.555699146250613     
  -2.00000000000000      -0.120000000000000      -0.522008175154707     
  -2.00000000000000      -8.000000000000007E-002 -0.487482102334359     
  -2.00000000000000      -4.000000000000004E-002 -0.452176162140912     
  -2.00000000000000       0.000000000000000E+000 -0.416146836547142     
  -2.00000000000000       4.000000000000004E-002 -0.379451764788155     
  -2.00000000000000       8.000000000000007E-002 -0.342149651150898     
  -2.00000000000000       0.120000000000000      -0.304300171059833     
  -2.00000000000000       0.160000000000000      -0.265963875608980     
  -2.00000000000000       0.200000000000000      -0.227202094693087     
  -2.00000000000000       0.240000000000000      -0.188076838892880     
  -2.00000000000000       0.280000000000000      -0.148650700271364     
  -2.00000000000000       0.320000000000000      -0.108986752239871     
  -2.00000000000000       0.360000000000000      -6.914844865406217E-002
  -2.00000000000000       0.400000000000000      -2.919952230128882E-002
  -2.00000000000000       0.440000000000000       1.079611705826739E-002
  -2.00000000000000       0.480000000000000       5.077448493357918E-002
  -2.00000000000000       0.520000000000000       9.067162446430968E-002
  -2.00000000000000       0.560000000000000       0.130423708738146     
  -2.00000000000000       0.600000000000000       0.169967142900241     
  -2.00000000000000       0.640000000000000       0.209238665891419     
  -2.00000000000000       0.680000000000000       0.248175451652373     
  -2.00000000000000       0.720000000000000       0.286715209631956     
  -2.00000000000000       0.760000000000000       0.324796284438776     
  -2.00000000000000       0.800000000000000       0.362357754476673     
  -2.00000000000000       0.840000000000000       0.399339529406273     
  -2.00000000000000       0.880000000000000       0.435682446276712     
  -2.00000000000000       0.920000000000000       0.471328364173740     
  -2.00000000000000       0.960000000000000       0.506220257232778     
  -2.00000000000000        1.00000000000000       0.540302305868140     
  -2.00000000000000        1.04000000000000       0.573519986072457     
  -2.00000000000000        1.08000000000000       0.605820156643463     
  -2.00000000000000        1.12000000000000       0.637151144198580     
  -2.00000000000000        1.16000000000000       0.667462825841308     
  -2.00000000000000        1.20000000000000       0.696706709347165     
  -2.00000000000000        1.24000000000000       0.724836010740905     
  -2.00000000000000        1.28000000000000       0.751805729140895     
  -2.00000000000000        1.32000000000000       0.777572718750928     
  -2.00000000000000        1.36000000000000       0.802095757884293     
  -2.00000000000000        1.40000000000000       0.825335614909678     
  -2.00000000000000        1.44000000000000       0.847255111013416     
  -2.00000000000000        1.48000000000000       0.867819179677650     
  -2.00000000000000        1.52000000000000       0.886994922779284     
  -2.00000000000000        1.56000000000000       0.904751663219963     
  -2.00000000000000        1.60000000000000       0.921060994002885     
  -2.00000000000000        1.64000000000000       0.935896823677935     
  -2.00000000000000        1.68000000000000       0.949235418082441     
  -2.00000000000000        1.72000000000000       0.961055438310771     
  -2.00000000000000        1.76000000000000       0.971337974852030     
  -2.00000000000000        1.80000000000000       0.980066577841242     
  -2.00000000000000        1.84000000000000       0.987227283375627     
  -2.00000000000000        1.88000000000000       0.992808635853866     
  -2.00000000000000        1.92000000000000       0.996801706302619     
  -2.00000000000000        1.96000000000000       0.999200106660978     
  -2.00000000000000        2.00000000000000        1.00000000000000     
  -1.96000000000000       -2.00000000000000      -0.683384803583336     
  -1.96000000000000       -1.96000000000000      -0.712032716398310     
  -1.96000000000000       -1.92000000000000      -0.739541528759258     
  -1.96000000000000       -1.88000000000000      -0.765867232434637     
  -1.96000000000000       -1.84000000000000      -0.790967711914417     
  -1.96000000000000       -1.80000000000000      -0.814802811785913     
  -1.96000000000000       -1.76000000000000      -0.837334400973880     
  -1.96000000000000       -1.72000000000000      -0.858526433742102     
  -1.96000000000000       -1.68000000000000      -0.878345007358874     
  -1.96000000000000       -1.64000000000000      -0.896758416334147     
  -1.96000000000000       -1.60000000000000      -0.913737203141545     
  -1.96000000000000       -1.56000000000000      -0.929254205344123     
  -1.96000000000000       -1.52000000000000      -0.943284599048476     
  -1.96000000000000       -1.48000000000000      -0.955805938617666     
  -1.96000000000000       -1.44000000000000      -0.966798192579461     
  -1.96000000000000       -1.40000000000000      -0.976243775672410     
  -1.96000000000000       -1.36000000000000      -0.984127576978514     
  -1.96000000000000       -1.32000000000000      -0.990436984097473     
  -1.96000000000000       -1.28000000000000      -0.995161903323830     
  -1.96000000000000       -1.24000000000000      -0.998294775794753     
  -1.96000000000000       -1.20000000000000      -0.999830589582598     
  -1.96000000000000       -1.16000000000000      -0.999766887712928     
  -1.96000000000000       -1.12000000000000      -0.998103772095146     
  -1.96000000000000       -1.08000000000000      -0.994843903359459     
  -1.96000000000000       -1.04000000000000      -0.989992496600445     
  -1.96000000000000       -1.00000000000000      -0.983557313034006     
  -1.96000000000000      -0.960000000000000      -0.975548647581083     
  -1.96000000000000      -0.920000000000000      -0.965979312397975     
  -1.96000000000000      -0.880000000000000      -0.954864616379626     
  -1.96000000000000      -0.840000000000000      -0.942222340668658     
  -1.96000000000000      -0.800000000000000      -0.928072710209333     
  -1.96000000000000      -0.760000000000000      -0.912438361391958     
  -1.96000000000000      -0.720000000000000      -0.895344305839492     
  -1.96000000000000      -0.680000000000000      -0.876817890394281     
  -1.96000000000000      -0.640000000000000      -0.856888753368947     
  -1.96000000000000      -0.600000000000000      -0.835588777131408     
  -1.96000000000000      -0.560000000000000      -0.812952037099890     
  -1.96000000000000      -0.520000000000000      -0.789014747229531     
  -1.96000000000000      -0.480000000000000      -0.763815202077774     
  -1.96000000000000      -0.440000000000000      -0.737393715541245     
  -1.96000000000000      -0.400000000000000      -0.709792556362120     
  -1.96000000000000      -0.360000000000000      -0.681055880507153     
  -1.96000000000000      -0.320000000000000      -0.651229660527546     
  -1.96000000000000      -0.280000000000000      -0.620361612012680     
  -1.96000000000000      -0.240000000000000      -0.588501117255346     
  -1.96000000000000      -0.200000000000000      -0.555699146250613     
  -1.96000000000000      -0.160000000000000      -0.522008175154707     
  -1.96000000000000      -0.120000000000000      -0.487482102334359     
  -1.96000000000000      -8.000000000000007E-002 -0.452176162140912     
  -1.96000000000000      -4.000000000000004E-002 -0.416146836547142     
  -1.96000000000000       0.000000000000000E+000 -0.379451764788155     
  -1.96000000000000       4.000000000000004E-002 -0.342149651150898     
  -1.96000000000000       8.000000000000007E-002 -0.304300171059833     
  -1.96000000000000       0.120000000000000      -0.265963875608980     
  -1.96000000000000       0.160000000000000      -0.227202094693087     
  -1.96000000000000       0.200000000000000      -0.188076838892880     
  -1.96000000000000       0.240000000000000      -0.148650700271363     
  -1.96000000000000       0.280000000000000      -0.108986752239871     
  -1.96000000000000       0.320000000000000      -6.914844865406217E-002
  -1.96000000000000       0.360000000000000      -2.919952230128882E-002
  -1.96000000000000       0.400000000000000       1.079611705826739E-002
  -1.96000000000000       0.440000000000000       5.077448493357918E-002
  -1.96000000000000       0.480000000000000       9.067162446430968E-002
  -1.96000000000000       0.520000000000000       0.130423708738146     
  -1.96000000000000       0.560000000000000       0.169967142900241     
  -1.96000000000000       0.600000000000000       0.209238665891419     
  -1.96000000000000       0.640000000000000       0.248175451652373     
  -1.96000000000000       0.680000000000000       0.286715209631956     
  -1.96000000000000       0.720000000000000       0.324796284438776     
  -1.96000000000000       0.760000000000000       0.362357754476673     
  -1.96000000000000       0.800000000000000       0.399339529406273     
  -1.96000000000000       0.840000000000000       0.435682446276712     
  -1.96000000000000       0.880000000000000       0.471328364173740     
  -1.96000000000000       0.920000000000000       0.506220257232778     
  -1.96000000000000       0.960000000000000       0.540302305868140     
  -1.96000000000000        1.00000000000000       0.573519986072457     
  -1.96000000000000        1.04000000000000       0.605820156643463     
  -1.96000000000000        1.08000000000000       0.637151144198580     
  -1.96000000000000        1.12000000000000       0.667462825841308     
  -1.96000000000000        1.16000000000000       0.696706709347165     
  -1.96000000000000        1.20000000000000       0.724836010740905     
  -1.96000000000000        1.24000000000000       0.751805729140895     
  -1.96000000000000        1.28000000000000       0.777572718750928     
  -1.96000000000000        1.32000000000000       0.802095757884293     
  -1.96000000000000        1.36000000000000       0.825335614909678     
  -1.96000000000000        1.40000000000000       0.847255111013416     
  -1.96000000000000        1.44000000000000       0.867819179677650     
  -1.96000000000000        1.48000000000000       0.886994922779284     
  -1.96000000000000        1.52000000000000       0.904751663219963     
  -1.96000000000000        1.56000000000000       0.921060994002885     
  -1.96000000000000        1.60000000000000       0.935896823677935     
  -1.96000000000000        1.64000000000000       0.949235418082441     
  -1.96000000000000        1.68000000000000       0.961055438310771     
  -1.96000000000000        1.72000000000000       0.971337974852030     
  -1.96000000000000        1.76000000000000       0.980066577841242     
  -1.96000000000000        1.80000000000000       0.987227283375627     
  -1.96000000000000        1.84000000000000       0.992808635853866     
  -1.96000000000000        1.88000000000000       0.996801706302619     
  -1.96000000000000        1.92000000000000       0.999200106660978     
  -1.96000000000000        1.96000000000000        1.00000000000000     
  -1.96000000000000        2.00000000000000       0.999200106660978     
  -1.92000000000000       -2.00000000000000      -0.712032716398310     
  -1.92000000000000       -1.96000000000000      -0.739541528759258     
  -1.92000000000000       -1.92000000000000      -0.765867232434637     
  -1.92000000000000       -1.88000000000000      -0.790967711914417     
  -1.92000000000000       -1.84000000000000      -0.814802811785913     
  -1.92000000000000       -1.80000000000000      -0.837334400973880     
  -1.92000000000000       -1.76000000000000      -0.858526433742102     
  -1.92000000000000       -1.72000000000000      -0.878345007358874     
  -1.92000000000000       -1.68000000000000      -0.896758416334147     
  -1.92000000000000       -1.64000000000000      -0.913737203141545     
  -1.92000000000000       -1.60000000000000      -0.929254205344123     
  -1.92000000000000       -1.56000000000000      -0.943284599048476     
  -1.92000000000000       -1.52000000000000      -0.955805938617666     
  -1.92000000000000       -1.48000000000000      -0.966798192579461     
  -1.92000000000000       -1.44000000000000      -0.976243775672410     
  -1.92000000000000       -1.40000000000000      -0.984127576978514     
  -1.92000000000000       -1.36000000000000      -0.990436984097473     
  -1.92000000000000       -1.32000000000000      -0.995161903323830     
  -1.92000000000000       -1.28000000000000      -0.998294775794753     
  -1.92000000000000       -1.24000000000000      -0.999830589582598     
  -1.92000000000000       -1.20000000000000      -0.999766887712928     
  -1.92000000000000       -1.16000000000000      -0.998103772095146     
  -1.92000000000000       -1.12000000000000      -0.994843903359459     
  -1.92000000000000       -1.08000000000000      -0.989992496600445     
  -1.92000000000000       -1.04000000000000      -0.983557313034006     
  -1.92000000000000       -1.00000000000000      -0.975548647581083     
  -1.92000000000000      -0.960000000000000      -0.965979312397975     
  -1.92000000000000      -0.920000000000000      -0.954864616379626     
  -1.92000000000000      -0.880000000000000      -0.942222340668658     
  -1.92000000000000      -0.840000000000000      -0.928072710209333     
  -1.92000000000000      -0.800000000000000      -0.912438361391958     
  -1.92000000000000      -0.760000000000000      -0.895344305839492     
  -1.92000000000000      -0.720000000000000      -0.876817890394281     
  -1.92000000000000      -0.680000000000000      -0.856888753368947     
  -1.92000000000000      -0.640000000000000      -0.835588777131407     
  -1.92000000000000      -0.600000000000000      -0.812952037099890     
  -1.92000000000000      -0.560000000000000      -0.789014747229531     
  -1.92000000000000      -0.520000000000000      -0.763815202077774     
  -1.92000000000000      -0.480000000000000      -0.737393715541245     
  -1.92000000000000      -0.440000000000000      -0.709792556362120     
  -1.92000000000000      -0.400000000000000      -0.681055880507152     
  -1.92000000000000      -0.360000000000000      -0.651229660527546     
  -1.92000000000000      -0.320000000000000      -0.620361612012680     
  -1.92000000000000      -0.280000000000000      -0.588501117255346     
  -1.92000000000000      -0.240000000000000      -0.555699146250613     
  -1.92000000000000      -0.200000000000000      -0.522008175154707     
  -1.92000000000000      -0.160000000000000      -0.487482102334359     
  -1.92000000000000      -0.120000000000000      -0.452176162140912     
  -1.92000000000000      -8.000000000000007E-002 -0.416146836547142     
  -1.92000000000000      -4.000000000000004E-002 -0.379451764788155     
  -1.92000000000000       0.000000000000000E+000 -0.342149651150898     
  -1.92000000000000       4.000000000000004E-002 -0.304300171059833     
  -1.92000000000000       8.000000000000007E-002 -0.265963875608980     
  -1.92000000000000       0.120000000000000      -0.227202094693087     
  -1.92000000000000       0.160000000000000      -0.188076838892880     
  -1.92000000000000       0.200000000000000      -0.148650700271363     
  -1.92000000000000       0.240000000000000      -0.108986752239871     
  -1.92000000000000       0.280000000000000      -6.914844865406217E-002
  -1.92000000000000       0.320000000000000      -2.919952230128882E-002
  -1.92000000000000       0.360000000000000       1.079611705826739E-002
  -1.92000000000000       0.400000000000000       5.077448493357918E-002
  -1.92000000000000       0.440000000000000       9.067162446430968E-002
  -1.92000000000000       0.480000000000000       0.130423708738146     
  -1.92000000000000       0.520000000000000       0.169967142900241     
  -1.92000000000000       0.560000000000000       0.209238665891419     
  -1.92000000000000       0.600000000000000       0.248175451652373     
  -1.92000000000000       0.640000000000000       0.286715209631956     
  -1.92000000000000       0.680000000000000       0.324796284438776     
  -1.92000000000000       0.720000000000000       0.362357754476674     
  -1.92000000000000       0.760000000000000       0.399339529406273     
  -1.92000000000000       0.800000000000000       0.435682446276712     
  -1.92000000000000       0.840000000000000       0.471328364173740     
  -1.92000000000000       0.880000000000000       0.506220257232778     
  -1.92000000000000       0.920000000000000       0.540302305868140     
  -1.92000000000000       0.960000000000000       0.573519986072457     
  -1.92000000000000        1.00000000000000       0.605820156643463     
  -1.92000000000000        1.04000000000000       0.637151144198580     
  -1.92000000000000        1.08000000000000       0.667462825841308     
  -1.92000000000000        1.12000000000000       0.696706709347165     
  -1.92000000000000        1.16000000000000       0.724836010740905     
  -1.92000000000000        1.20000000000000       0.751805729140895     
  -1.92000000000000        1.24000000000000       0.777572718750928     
  -1.92000000000000        1.28000000000000       0.802095757884293     
  -1.92000000000000        1.32000000000000       0.825335614909678     
  -1.92000000000000        1.36000000000000       0.847255111013416     
  -1.92000000000000        1.40000000000000       0.867819179677650     
  -1.92000000000000        1.44000000000000       0.886994922779284     
  -1.92000000000000        1.48000000000000       0.904751663219963     
  -1.92000000000000        1.52000000000000       0.921060994002885     
  -1.92000000000000        1.56000000000000       0.935896823677935     
  -1.92000000000000        1.60000000000000       0.949235418082441     
  -1.92000000000000        1.64000000000000       0.961055438310771     
  -1.92000000000000        1.68000000000000       0.971337974852030     
  -1.92000000000000        1.72000000000000       0.980066577841242     
  -1.92000000000000        1.76000000000000       0.987227283375627     
  -1.92000000000000        1.80000000000000       0.992808635853866     
  -1.92000000000000        1.84000000000000       0.996801706302619     
  -1.92000000000000        1.88000000000000       0.999200106660978     
  -1.92000000000000        1.92000000000000        1.00000000000000     
  -1.92000000000000        1.96000000000000       0.999200106660978     
  -1.92000000000000        2.00000000000000       0.996801706302619     
  -1.88000000000000       -2.00000000000000      -0.739541528759258     
  -1.88000000000000       -1.96000000000000      -0.765867232434637     
  -1.88000000000000       -1.92000000000000      -0.790967711914417     
  -1.88000000000000       -1.88000000000000      -0.814802811785913     
  -1.88000000000000       -1.84000000000000      -0.837334400973880     
  -1.88000000000000       -1.80000000000000      -0.858526433742102     
  -1.88000000000000       -1.76000000000000      -0.878345007358874     
  -1.88000000000000       -1.72000000000000      -0.896758416334147     
  -1.88000000000000       -1.68000000000000      -0.913737203141545     
  -1.88000000000000       -1.64000000000000      -0.929254205344123     
  -1.88000000000000       -1.60000000000000      -0.943284599048476     
  -1.88000000000000       -1.56000000000000      -0.955805938617666     
  -1.88000000000000       -1.52000000000000      -0.966798192579461     
  -1.88000000000000       -1.48000000000000      -0.976243775672410     
  -1.88000000000000       -1.44000000000000      -0.984127576978514     
  -1.88000000000000       -1.40000000000000      -0.990436984097473     
  -1.88000000000000       -1.36000000000000      -0.995161903323830     
  -1.88000000000000       -1.32000000000000      -0.998294775794753     
  -1.88000000000000       -1.28000000000000      -0.999830589582598     
  -1.88000000000000       -1.24000000000000      -0.999766887712928     
  -1.88000000000000       -1.20000000000000      -0.998103772095146     
  -1.88000000000000       -1.16000000000000      -0.994843903359459     
  -1.88000000000000       -1.12000000000000      -0.989992496600445     
  -1.88000000000000       -1.08000000000000      -0.983557313034006     
  -1.88000000000000       -1.04000000000000      -0.975548647581083     
  -1.88000000000000       -1.00000000000000      -0.965979312397975     
  -1.88000000000000      -0.960000000000000      -0.954864616379626     
  -1.88000000000000      -0.920000000000000      -0.942222340668658     
  -1.88000000000000      -0.880000000000000      -0.928072710209333     
  -1.88000000000000      -0.840000000000000      -0.912438361391958     
  -1.88000000000000      -0.800000000000000      -0.895344305839492     
  -1.88000000000000      -0.760000000000000      -0.876817890394281     
  -1.88000000000000      -0.720000000000000      -0.856888753368947     
  -1.88000000000000      -0.680000000000000      -0.835588777131407     
  -1.88000000000000      -0.640000000000000      -0.812952037099890     
  -1.88000000000000      -0.600000000000000      -0.789014747229531     
  -1.88000000000000      -0.560000000000000      -0.763815202077774     
  -1.88000000000000      -0.520000000000000      -0.737393715541245     
  -1.88000000000000      -0.480000000000000      -0.709792556362120     
  -1.88000000000000      -0.440000000000000      -0.681055880507152     
  -1.88000000000000      -0.400000000000000      -0.651229660527545     
  -1.88000000000000      -0.360000000000000      -0.620361612012680     
  -1.88000000000000      -0.320000000000000      -0.588501117255346     
  -1.88000000000000      -0.280000000000000      -0.555699146250613     
  -1.88000000000000      -0.240000000000000      -0.522008175154707     
  -1.88000000000000      -0.200000000000000      -0.487482102334359     
  -1.88000000000000      -0.160000000000000      -0.452176162140912     
  -1.88000000000000      -0.120000000000000      -0.416146836547142     
  -1.88000000000000      -8.000000000000007E-002 -0.379451764788155     
  -1.88000000000000      -4.000000000000004E-002 -0.342149651150898     
  -1.88000000000000       0.000000000000000E+000 -0.304300171059833     
  -1.88000000000000       4.000000000000004E-002 -0.265963875608980     
  -1.88000000000000       8.000000000000007E-002 -0.227202094693087     
  -1.88000000000000       0.120000000000000      -0.188076838892880     
  -1.88000000000000       0.160000000000000      -0.148650700271363     
  -1.88000000000000       0.200000000000000      -0.108986752239871     
  -1.88000000000000       0.240000000000000      -6.914844865406172E-002
  -1.88000000000000       0.280000000000000      -2.919952230128882E-002
  -1.88000000000000       0.320000000000000       1.079611705826739E-002
  -1.88000000000000       0.360000000000000       5.077448493357918E-002
  -1.88000000000000       0.400000000000000       9.067162446430968E-002
  -1.88000000000000       0.440000000000000       0.130423708738146     
  -1.88000000000000       0.480000000000000       0.169967142900241     
  -1.88000000000000       0.520000000000000       0.209238665891419     
  -1.88000000000000       0.560000000000000       0.248175451652373     
  -1.88000000000000       0.600000000000000       0.286715209631956     
  -1.88000000000000       0.640000000000000       0.324796284438776     
  -1.88000000000000       0.680000000000000       0.362357754476674     
  -1.88000000000000       0.720000000000000       0.399339529406273     
  -1.88000000000000       0.760000000000000       0.435682446276712     
  -1.88000000000000       0.800000000000000       0.471328364173740     
  -1.88000000000000       0.840000000000000       0.506220257232778     
  -1.88000000000000       0.880000000000000       0.540302305868140     
  -1.88000000000000       0.920000000000000       0.573519986072457     
  -1.88000000000000       0.960000000000000       0.605820156643463     
  -1.88000000000000        1.00000000000000       0.637151144198580     
  -1.88000000000000        1.04000000000000       0.667462825841308     
  -1.88000000000000        1.08000000000000       0.696706709347165     
  -1.88000000000000        1.12000000000000       0.724836010740905     
  -1.88000000000000        1.16000000000000       0.751805729140895     
  -1.88000000000000        1.20000000000000       0.777572718750928     
  -1.88000000000000        1.24000000000000       0.802095757884293     
  -1.88000000000000        1.28000000000000       0.825335614909678     
  -1.88000000000000        1.32000000000000       0.847255111013416     
  -1.88000000000000        1.36000000000000       0.867819179677650     
  -1.88000000000000        1.40000000000000       0.886994922779284     
  -1.88000000000000        1.44000000000000       0.904751663219963     
  -1.88000000000000        1.48000000000000       0.921060994002885     
  -1.88000000000000        1.52000000000000       0.935896823677935     
  -1.88000000000000        1.56000000000000       0.949235418082441     
  -1.88000000000000        1.60000000000000       0.961055438310771     
  -1.88000000000000        1.64000000000000       0.971337974852030     
  -1.88000000000000        1.68000000000000       0.980066577841242     
  -1.88000000000000        1.72000000000000       0.987227283375627     
  -1.88000000000000        1.76000000000000       0.992808635853866     
  -1.88000000000000        1.80000000000000       0.996801706302619     
  -1.88000000000000        1.84000000000000       0.999200106660978     
  -1.88000000000000        1.88000000000000        1.00000000000000     
  -1.88000000000000        1.92000000000000       0.999200106660978     
  -1.88000000000000        1.96000000000000       0.996801706302619     
  -1.88000000000000        2.00000000000000       0.992808635853866     
  -1.84000000000000       -2.00000000000000      -0.765867232434637     
  -1.84000000000000       -1.96000000000000      -0.790967711914417     
  -1.84000000000000       -1.92000000000000      -0.814802811785913     
  -1.84000000000000       -1.88000000000000      -0.837334400973880     
  -1.84000000000000       -1.84000000000000      -0.858526433742102     