 variables= "x","y","f"
 zone i=          20  datapacking=point
   1.38829707273365       0.535682064321189      -0.345885910691688     
  0.983901446322704        1.45845507787261      -0.765334063049421     
  0.556608442298692        1.12949387898156      -0.115050656342685     
   1.54308976432691       0.403624047013176      -0.367126101168511     
   1.70966908053964       0.709358175843859      -0.750111673486813     
  0.283236704838681       0.807861482573814       0.461511405671732     
  0.734298253186005        1.10293766941934      -0.263298339395537     
  0.850741394138579       0.948410022219219      -0.226375621819256     
   1.03561137647209        1.30224350353066      -0.694020534119394     
   1.14540439792587        1.68156388613868      -0.950912688341638     
   1.31171595819980        1.54423438299644      -0.959480863792813     
  0.385109518775234       0.322275060375259       0.760064099924284     
   1.66318129236068        1.73330299309889      -0.967690625369863     
  0.369669164205218        1.74309653963511      -0.515824145325973     
  0.652700034286261        1.65092015247241      -0.668971241498688     
   1.71526737873033        1.40973325782438      -0.999862355643131     
  0.784563195078205       0.558061061279381       0.226197350065143     
  0.398538348645451        1.42295902304823      -0.248083149514433     
  0.543674201905863       0.756753788180275       0.267086410786785     
   1.08581431568562       0.607602923974604      -0.122313858074058     
