 variables= "x","y","fpcb"
 zone i=          42  datapacking=point
  0.000000000000000E+000  0.000000000000000E+000  0.000000000000000E+000
   1.81327149031531       -1.21147288717906       0.000000000000000E+000
   1.80027920020630        1.50689250570783       0.000000000000000E+000
 -0.756262538061296       0.781367903595805       0.000000000000000E+000
 -0.358135668027731       -1.98866861149564       0.000000000000000E+000
 -6.422125081344010E-002   1.81250026131863       0.000000000000000E+000
  0.145632773314317        1.22847735486931       0.000000000000000E+000
 -0.935344674019858        1.75061061357732       0.000000000000000E+000
   1.90596626626428        1.53697267625504       0.000000000000000E+000
 -0.863987283391782      -0.685596013150061       0.000000000000000E+000
   1.01450857787220       -1.44633931364053       0.000000000000000E+000
 -0.568965770549874       0.253204482497808       0.000000000000000E+000
   1.29473345048379       -1.66055533401555       0.000000000000000E+000
   1.46315112821035        1.09528173000367       0.000000000000000E+000
  0.351743581731755       -1.84386620450073       0.000000000000000E+000
 -0.635865727717964      -0.103201430818290       0.000000000000000E+000
 -0.458700304955070       0.517942519164177       0.000000000000000E+000
  -1.66870823759900      -0.305933996202610       0.000000000000000E+000
   1.14260192743288        1.19171609814184       0.000000000000000E+000
  -1.55769830026854      -0.876318956091135       0.000000000000000E+000
  0.740277188901761       0.390231850372728       0.000000000000000E+000
   1.35090900145778      -7.437083762242169E-003  0.000000000000000E+000
  -1.02851003009330       -1.09262773093534       0.000000000000000E+000
  -1.87539276833915       0.595970098271771       0.000000000000000E+000
  -1.48235501306853      -0.506168049770319       0.000000000000000E+000
  -1.94070461630735       -1.02007099935925       0.000000000000000E+000
  0.236050360259817        1.91061621200540       0.000000000000000E+000
  -1.77476576537286       -1.34649554968883       0.000000000000000E+000
   1.65812286845611       0.181003757335201       0.000000000000000E+000
  -1.19724249820691      -0.211313851164237       0.000000000000000E+000
  0.481918022054262        1.32615229206126       0.000000000000000E+000
  0.669367435743537       -1.60232975742496       0.000000000000000E+000
  0.302395011890388       -1.77086718101922       0.000000000000000E+000
  -1.25679120391662       -1.30617477444527       0.000000000000000E+000
  -1.32878856348282        1.65715127381204       0.000000000000000E+000
 -0.266459550314122       0.131702903465237       0.000000000000000E+000
  0.833850132212481      -0.810764800840391       0.000000000000000E+000
 -1.741326662620613E-002  0.988187413915157       0.000000000000000E+000
  0.603520524102391       0.660987677699724       0.000000000000000E+000
 -0.240307449293542       0.829655220641392       0.000000000000000E+000
   1.54294362906273      -0.374950582225952       0.000000000000000E+000
   1.03406148949447      -0.623703707414116       0.000000000000000E+000
