 variables= "x","y","f"
 zone i=           7  datapacking=point
  0.000000000000000E+000  0.000000000000000E+000   1.00000000000000     
   1.27993835285791       0.419585703389310        5.47134272055072     
 -7.610297302857294E-002   1.31025116110095        3.43545091593086     
  -1.72933383399000       -1.27540147212530       4.955186866933662E-002
   1.86242488890310        1.90787342716679        43.3930077367467     
   1.88590700816387       -1.96045483874190       0.928163078420710     
  0.748867689539656       -1.93179119114887       0.306381720570073     
