 variables= "x","y","fPC"
 zone i=         101  j=         101  datapacking=point
  0.250000000000000       0.250000000000000       0.887694807629333     
  0.250000000000000       0.265000000000000       0.879516052513245     
  0.250000000000000       0.280000000000000       0.871162445832615     
  0.250000000000000       0.295000000000000       0.862636341987192     
  0.250000000000000       0.310000000000000       0.853940095376727     
  0.250000000000000       0.325000000000000       0.845076060400970     
  0.250000000000000       0.340000000000000       0.836046591459672     
  0.250000000000000       0.355000000000000       0.826854042952583     
  0.250000000000000       0.370000000000000       0.817500769279452     
  0.250000000000000       0.385000000000000       0.807989124840032     
  0.250000000000000       0.400000000000000       0.798321464034072     
  0.250000000000000       0.415000000000000       0.788500141261321     
  0.250000000000000       0.430000000000000       0.778527510921531     
  0.250000000000000       0.445000000000000       0.768405927414453     
  0.250000000000000       0.460000000000000       0.758137745139835     
  0.250000000000000       0.475000000000000       0.747725318497429     
  0.250000000000000       0.490000000000000       0.737171001886985     
  0.250000000000000       0.505000000000000       0.726477149708254     
  0.250000000000000       0.520000000000000       0.715646116360985     
  0.250000000000000       0.535000000000000       0.704680256244929     
  0.250000000000000       0.550000000000000       0.693581923759837     
  0.250000000000000       0.565000000000000       0.682353473305458     
  0.250000000000000       0.580000000000000       0.670997259281543     
  0.250000000000000       0.595000000000000       0.659515636087843     
  0.250000000000000       0.610000000000000       0.647910958124107     
  0.250000000000000       0.625000000000000       0.636185579790087     
  0.250000000000000       0.640000000000000       0.624341855485532     
  0.250000000000000       0.655000000000000       0.612382139610192     
  0.250000000000000       0.670000000000000       0.600308786563819     
  0.250000000000000       0.685000000000000       0.588124150746163     
  0.250000000000000       0.700000000000000       0.575830586556973     
  0.250000000000000       0.715000000000000       0.563430448396000     
  0.250000000000000       0.730000000000000       0.550926090662995     
  0.250000000000000       0.745000000000000       0.538319867757707     
  0.250000000000000       0.760000000000000       0.525614134079888     
  0.250000000000000       0.775000000000000       0.512811244029287     
  0.250000000000000       0.790000000000000       0.499913552005655     
  0.250000000000000       0.805000000000000       0.486923412408743     
  0.250000000000000       0.820000000000000       0.473843179638300     
  0.250000000000000       0.835000000000000       0.460675208094076     
  0.250000000000000       0.850000000000000       0.447421852175823     
  0.250000000000000       0.865000000000000       0.434085466283291     
  0.250000000000000       0.880000000000000       0.420668404816230     
  0.250000000000000       0.895000000000000       0.407173022174389     
  0.250000000000000       0.910000000000000       0.393601672757521     
  0.250000000000000       0.925000000000000       0.379956710965374     
  0.250000000000000       0.940000000000000       0.366240491197700     
  0.250000000000000       0.955000000000000       0.352455367854248     
  0.250000000000000       0.970000000000000       0.338603695334770     
  0.250000000000000       0.985000000000000       0.324687828039014     
  0.250000000000000        1.00000000000000       0.310710120366733     
  0.250000000000000        1.01500000000000       0.296672926717675     
  0.250000000000000        1.03000000000000       0.282578601491592     
  0.250000000000000        1.04500000000000       0.268429499088234     
  0.250000000000000        1.06000000000000       0.254227973907350     
  0.250000000000000        1.07500000000000       0.239976380348692     
  0.250000000000000        1.09000000000000       0.225677072812010     
  0.250000000000000        1.10500000000000       0.211332405697054     
  0.250000000000000        1.12000000000000       0.196944733403574     
  0.250000000000000        1.13500000000000       0.182516410331321     
  0.250000000000000        1.15000000000000       0.168049790880045     
  0.250000000000000        1.16500000000000       0.153547229449497     
  0.250000000000000        1.18000000000000       0.139011080439426     
  0.250000000000000        1.19500000000000       0.124443698249584     
  0.250000000000000        1.21000000000000       0.109847437279720     
  0.250000000000000        1.22500000000000       9.522465192958456E-002
  0.250000000000000        1.24000000000000       8.057769659892879E-002
  0.250000000000000        1.25500000000000       6.590892568750238E-002
  0.250000000000000        1.27000000000000       5.122069359505585E-002
  0.250000000000000        1.28500000000000       3.651535472133971E-002
  0.250000000000000        1.30000000000000       2.179526346610436E-002
  0.250000000000000        1.31500000000000       7.062774229099344E-003
  0.250000000000000        1.33000000000000      -7.679758589924340E-003
  0.250000000000000        1.34500000000000      -2.242998059121612E-002
  0.250000000000000        1.36000000000000      -3.718553737502633E-002
  0.250000000000000        1.37500000000000      -5.194407454160385E-002
  0.250000000000000        1.39000000000000      -6.670323769119912E-002
  0.250000000000000        1.40500000000000      -8.146067242406116E-002
  0.250000000000000        1.42000000000000      -9.621402434043982E-002
  0.250000000000000        1.43500000000000      -0.110960939040585     
  0.250000000000000        1.45000000000000      -0.125699062124746     
  0.250000000000000        1.46500000000000      -0.140426039193173     
  0.250000000000000        1.48000000000000      -0.155139515846115     
  0.250000000000000        1.49500000000000      -0.169837137683822     
  0.250000000000000        1.51000000000000      -0.184516550306544     
  0.250000000000000        1.52500000000000      -0.199175399314530     
  0.250000000000000        1.54000000000000      -0.213811330308030     
  0.250000000000000        1.55500000000000      -0.228421988887293     
  0.250000000000000        1.57000000000000      -0.243005020652570     
  0.250000000000000        1.58500000000000      -0.257558071204109     
  0.250000000000000        1.60000000000000      -0.272078786142162     
  0.250000000000000        1.61500000000000      -0.286564811066976     
  0.250000000000000        1.63000000000000      -0.301013791578802     
  0.250000000000000        1.64500000000000      -0.315423373277890     
  0.250000000000000        1.66000000000000      -0.329791201764489     
  0.250000000000000        1.67500000000000      -0.344114922638848     
  0.250000000000000        1.69000000000000      -0.358392181501219     
  0.250000000000000        1.70500000000000      -0.372620623951849     
  0.250000000000000        1.72000000000000      -0.386797895590989     
  0.250000000000000        1.73500000000000      -0.400921642018889     
  0.250000000000000        1.75000000000000      -0.414989508835798     
  0.265000000000000       0.250000000000000       0.879956367243817     
  0.265000000000000       0.265000000000000       0.871585104352059     
  0.265000000000000       0.280000000000000       0.863041666672690     
  0.265000000000000       0.295000000000000       0.854328408605461     
  0.265000000000000       0.310000000000000       0.845447684550121     
  0.265000000000000       0.325000000000000       0.836401848906421     
  0.265000000000000       0.340000000000000       0.827193256074112     
  0.265000000000000       0.355000000000000       0.817824260452943     
  0.265000000000000       0.370000000000000       0.808297216442666     
  0.265000000000000       0.385000000000000       0.798614478443029     
  0.265000000000000       0.400000000000000       0.788778400853784     
  0.265000000000000       0.415000000000000       0.778791338074682     
  0.265000000000000       0.430000000000000       0.768655644505472     
  0.265000000000000       0.445000000000000       0.758373674545905     
  0.265000000000000       0.460000000000000       0.747947782595731     
  0.265000000000000       0.475000000000000       0.737380323054700     
  0.265000000000000       0.490000000000000       0.726673650322563     
  0.265000000000000       0.505000000000000       0.715830118799071     
  0.265000000000000       0.520000000000000       0.704852082883972     
  0.265000000000000       0.535000000000000       0.693741896977019     
  0.265000000000000       0.550000000000000       0.682501915477961     
  0.265000000000000       0.565000000000000       0.671134492786548     
  0.265000000000000       0.580000000000000       0.659641983302531     
  0.265000000000000       0.595000000000000       0.648026741425661     
  0.265000000000000       0.610000000000000       0.636291121555687     
  0.265000000000000       0.625000000000000       0.624437478092359     
  0.265000000000000       0.640000000000000       0.612468165435430     
  0.265000000000000       0.655000000000000       0.600385537984647     
  0.265000000000000       0.670000000000000       0.588191950139763     
  0.265000000000000       0.685000000000000       0.575889756300527     
  0.265000000000000       0.700000000000000       0.563481310866690     
  0.265000000000000       0.715000000000000       0.550968968238001     
  0.265000000000000       0.730000000000000       0.538355082814212     
  0.265000000000000       0.745000000000000       0.525642008995073     
  0.265000000000000       0.760000000000000       0.512832101180333     
  0.265000000000000       0.775000000000000       0.499927713769744     
  0.265000000000000       0.790000000000000       0.486931201163055     
  0.265000000000000       0.805000000000000       0.473844917760018     
  0.265000000000000       0.820000000000000       0.460671217960382     
  0.265000000000000       0.835000000000000       0.447412456163897     
  0.265000000000000       0.850000000000000       0.434070986770315     
  0.265000000000000       0.865000000000000       0.420649164179385     
  0.265000000000000       0.880000000000000       0.407149342790858     
  0.265000000000000       0.895000000000000       0.393573877004484     
  0.265000000000000       0.910000000000000       0.379925121220013     
  0.265000000000000       0.925000000000000       0.366205429837196     
  0.265000000000000       0.940000000000000       0.352417157255784     
  0.265000000000000       0.955000000000000       0.338562657875525     
  0.265000000000000       0.970000000000000       0.324644286096172     
  0.265000000000000       0.985000000000000       0.310664396317474     
  0.265000000000000        1.00000000000000       0.296625342939181     
  0.265000000000000        1.01500000000000       0.282529480361044     
  0.265000000000000        1.03000000000000       0.268379162982813     
  0.265000000000000        1.04500000000000       0.254176745204239     
  0.265000000000000        1.06000000000000       0.239924581425072     
  0.265000000000000        1.07500000000000       0.225625026045061     
  0.265000000000000        1.09000000000000       0.211280433463959     
  0.265000000000000        1.10500000000000       0.196893158081514     
  0.265000000000000        1.12000000000000       0.182465554297478     
  0.265000000000000        1.13500000000000       0.167999976511600     
  0.265000000000000        1.15000000000000       0.153498779123631     
  0.265000000000000        1.16500000000000       0.138964316533322     
  0.265000000000000        1.18000000000000       0.124398943140422     
  0.265000000000000        1.19500000000000       0.109805013344682     
  0.265000000000000        1.21000000000000       9.518488154585239E-002
  0.265000000000000        1.22500000000000       8.054090214368315E-002
  0.265000000000000        1.24000000000000       6.587542953792533E-002
  0.265000000000000        1.25500000000000       5.119081812832857E-002
  0.265000000000000        1.27000000000000       3.648942231464358E-002
  0.265000000000000        1.28500000000000       2.177359649662119E-002
  0.265000000000000        1.30000000000000       7.045695074010622E-003
  0.265000000000000        1.31500000000000      -7.691927553437145E-003
  0.265000000000000        1.33000000000000      -2.243691698597206E-002
  0.265000000000000        1.34500000000000      -3.718691882384326E-002
  0.265000000000000        1.36000000000000      -5.193957866730067E-002
  0.265000000000000        1.37500000000000      -6.669254211659428E-002
  0.265000000000000        1.39000000000000      -8.144345477197307E-002
  0.265000000000000        1.40500000000000      -9.618996223368728E-002
  0.265000000000000        1.42000000000000      -0.110929710101986     
  0.265000000000000        1.43500000000000      -0.125660343977120     
  0.265000000000000        1.45000000000000      -0.140379509459338     
  0.265000000000000        1.46500000000000      -0.155084852148889     
  0.265000000000000        1.48000000000000      -0.169774017646024     
  0.265000000000000        1.49500000000000      -0.184444651550992     
  0.265000000000000        1.51000000000000      -0.199094399464043     
  0.265000000000000        1.52500000000000      -0.213720906985427     
  0.265000000000000        1.54000000000000      -0.228321819715392     
  0.265000000000000        1.55500000000000      -0.242894783254190     
  0.265000000000000        1.57000000000000      -0.257437443202069     
  0.265000000000000        1.58500000000000      -0.271947445159278     
  0.265000000000000        1.60000000000000      -0.286422434726069     
  0.265000000000000        1.61500000000000      -0.300860057502690     
  0.265000000000000        1.63000000000000      -0.315257959089391     
  0.265000000000000        1.64500000000000      -0.329613785086422     
  0.265000000000000        1.66000000000000      -0.343925181094032     
  0.265000000000000        1.67500000000000      -0.358189792712470     
  0.265000000000000        1.69000000000000      -0.372405265541989     
  0.265000000000000        1.70500000000000      -0.386569245182835     
  0.265000000000000        1.72000000000000      -0.400679377235259     
  0.265000000000000        1.73500000000000      -0.414733307299510     
  0.265000000000000        1.75000000000000      -0.428728680975839     
  0.280000000000000       0.250000000000000       0.872017476370751     
  0.280000000000000       0.265000000000000       0.863456555900795     
  0.280000000000000       0.280000000000000       0.854726137420160     
  0.280000000000000       0.295000000000000       0.845828575328596     
  0.280000000000000       0.310000000000000       0.836766224025853     
  0.280000000000000       0.325000000000000       0.827541437911682     
  0.280000000000000       0.340000000000000       0.818156571385834     
  0.280000000000000       0.355000000000000       0.808613978848058     
  0.280000000000000       0.370000000000000       0.798916014698104     
  0.280000000000000       0.385000000000000       0.789065033335725     
  0.280000000000000       0.400000000000000       0.779063389160668     
  0.280000000000000       0.415000000000000       0.768913436572685     
  0.280000000000000       0.430000000000000       0.758617529971527     
  0.280000000000000       0.445000000000000       0.748178023756943     
  0.280000000000000       0.460000000000000       0.737597272328685     
  0.280000000000000       0.475000000000000       0.726877630086501     
  0.280000000000000       0.490000000000000       0.716021451430143     
  0.280000000000000       0.505000000000000       0.705031090759362     
  0.280000000000000       0.520000000000000       0.693908902473906     
  0.280000000000000       0.535000000000000       0.682657240973527     
  0.280000000000000       0.550000000000000       0.671278460657975     
  0.280000000000000       0.565000000000000       0.659774915927001     
  0.280000000000000       0.580000000000000       0.648148961180354     
  0.280000000000000       0.595000000000000       0.636402950817785     
  0.280000000000000       0.610000000000000       0.624539239239044     
  0.280000000000000       0.625000000000000       0.612560180843883     
  0.280000000000000       0.640000000000000       0.600468130032050     
  0.280000000000000       0.655000000000000       0.588265441203296     
  0.280000000000000       0.670000000000000       0.575954468757373     
  0.280000000000000       0.685000000000000       0.563537567094030     
  0.280000000000000       0.700000000000000       0.551017090613017     
  0.280000000000000       0.715000000000000       0.538395393714084     
  0.280000000000000       0.730000000000000       0.525674830796983     
  0.280000000000000       0.745000000000000       0.512857756261464     
  0.280000000000000       0.760000000000000       0.499946524507276     
  0.280000000000000       0.775000000000000       0.486943489934170     
  0.280000000000000       0.790000000000000       0.473851006941897     
  0.280000000000000       0.805000000000000       0.460671429930207     
  0.280000000000000       0.820000000000000       0.447407113298850     
  0.280000000000000       0.835000000000000       0.434060411447576     
  0.280000000000000       0.850000000000000       0.420633678776136     
  0.280000000000000       0.865000000000000       0.407129269684281     
  0.280000000000000       0.880000000000000       0.393549538571760     
  0.280000000000000       0.895000000000000       0.379896839838324     
  0.280000000000000       0.910000000000000       0.366173527883723     
  0.280000000000000       0.925000000000000       0.352381957107708     
  0.280000000000000       0.940000000000000       0.338524481910029     
  0.280000000000000       0.955000000000000       0.324603456690436     
  0.280000000000000       0.970000000000000       0.310621235848680     
  0.280000000000000       0.985000000000000       0.296580173784511     
  0.280000000000000        1.00000000000000       0.282482624897679     
  0.280000000000000        1.01500000000000       0.268330943587934     
  0.280000000000000        1.03000000000000       0.254127484255028     
  0.280000000000000        1.04500000000000       0.239874601298710     
  0.280000000000000        1.06000000000000       0.225574649118731     
  0.280000000000000        1.07500000000000       0.211229982114841     
  0.280000000000000        1.09000000000000       0.196842954686790     
  0.280000000000000        1.10500000000000       0.182415921234329     
  0.280000000000000        1.12000000000000       0.167951236157208     
  0.280000000000000        1.13500000000000       0.153451253855177     
  0.280000000000000        1.15000000000000       0.138918328727988     
  0.280000000000000        1.16500000000000       0.124354815175389     
  0.280000000000000        1.18000000000000       0.109763067597131     
  0.280000000000000        1.19500000000000       9.514544039296589E-002
  0.280000000000000        1.21000000000000       8.050428796264260E-002
  0.280000000000000        1.22500000000000       6.584196470591161E-002
  0.280000000000000        1.24000000000000       5.116082502252370E-002
  0.280000000000000        1.25500000000000       3.646322331222876E-002
  0.280000000000000        1.27000000000000       2.175151397477737E-002
  0.280000000000000        1.28500000000000       7.028051409920022E-003
  0.280000000000000        1.30000000000000      -7.704809982592931E-003
  0.280000000000000        1.31500000000000      -2.244471580301199E-002
  0.280000000000000        1.33000000000000      -3.718931165158595E-002
  0.280000000000000        1.34500000000000      -5.193624312856443E-002
  0.280000000000000        1.36000000000000      -6.668315583419762E-002
  0.280000000000000        1.37500000000000      -8.142769536873465E-002
  0.280000000000000        1.39000000000000      -9.616750733242568E-002
  0.280000000000000        1.40500000000000      -0.110900237325520     
  0.280000000000000        1.42000000000000      -0.125623530948267     
  0.280000000000000        1.43500000000000      -0.140335033800917     
  0.280000000000000        1.45000000000000      -0.155032391483720     
  0.280000000000000        1.46500000000000      -0.169713249596924     
  0.280000000000000        1.48000000000000      -0.184375253740780     
  0.280000000000000        1.49500000000000      -0.199016049515537     
  0.280000000000000        1.51000000000000      -0.213633282521445     
  0.280000000000000        1.52500000000000      -0.228224598358754     
  0.280000000000000        1.54000000000000      -0.242787642627714     
  0.280000000000000        1.55500000000000      -0.257320060928573     
  0.280000000000000        1.57000000000000      -0.271819498861582     
  0.280000000000000        1.58500000000000      -0.286283602026990     
  0.280000000000000        1.60000000000000      -0.300710016025047     
  0.280000000000000        1.61500000000000      -0.315096386456003     
  0.280000000000000        1.63000000000000      -0.329440358920106     
  0.280000000000000        1.64500000000000      -0.343739579017608     
  0.280000000000000        1.66000000000000      -0.357991692348757     
  0.280000000000000        1.67500000000000      -0.372194344513803     
  0.280000000000000        1.69000000000000      -0.386345181112997     
  0.280000000000000        1.70500000000000      -0.400441847746587     
  0.280000000000000        1.72000000000000      -0.414481990014823     
  0.280000000000000        1.73500000000000      -0.428463253517955     
  0.280000000000000        1.75000000000000      -0.442383283856232     
  0.295000000000000       0.250000000000000       0.863880977720770     
  0.295000000000000       0.265000000000000       0.855133249870087     
  0.295000000000000       0.280000000000000       0.846218700785657     
  0.295000000000000       0.295000000000000       0.837139684867231     
  0.295000000000000       0.310000000000000       0.827898556514557     
  0.295000000000000       0.325000000000000       0.818497670127387     
  0.295000000000000       0.340000000000000       0.808939380105471     
  0.295000000000000       0.355000000000000       0.799226040848560     
  0.295000000000000       0.370000000000000       0.789360006756403     
  0.295000000000000       0.385000000000000       0.779343632228752     
  0.295000000000000       0.400000000000000       0.769179271665355     
  0.295000000000000       0.415000000000000       0.758869279465964     
  0.295000000000000       0.430000000000000       0.748416010030330     
  0.295000000000000       0.445000000000000       0.737821817758202     
  0.295000000000000       0.460000000000000       0.727089057049330     
  0.295000000000000       0.475000000000000       0.716220082303466     
  0.295000000000000       0.490000000000000       0.705217247920359     
  0.295000000000000       0.505000000000000       0.694082908299760     
  0.295000000000000       0.520000000000000       0.682819417841419     
  0.295000000000000       0.535000000000000       0.671429130945087     
  0.295000000000000       0.550000000000000       0.659914402010513     
  0.295000000000000       0.565000000000000       0.648277585437448     
  0.295000000000000       0.580000000000000       0.636521035625643     
  0.295000000000000       0.595000000000000       0.624647106974848     
  0.295000000000000       0.610000000000000       0.612658153884813     
  0.295000000000000       0.625000000000000       0.600556530755289     
  0.295000000000000       0.640000000000000       0.588344591986025     
  0.295000000000000       0.655000000000000       0.576024691976773     
  0.295000000000000       0.670000000000000       0.563599185127282     
  0.295000000000000       0.685000000000000       0.551070425837304     
  0.295000000000000       0.700000000000000       0.538440768506587     
  0.295000000000000       0.715000000000000       0.525712567534883     
  0.295000000000000       0.730000000000000       0.512888177321942     
  0.295000000000000       0.745000000000000       0.499969952267514     
  0.295000000000000       0.760000000000000       0.486960246771350     
  0.295000000000000       0.775000000000000       0.473861415233200     
  0.295000000000000       0.790000000000000       0.460675812052814     
  0.295000000000000       0.805000000000000       0.447405791629943     
  0.295000000000000       0.820000000000000       0.434053708364337     
  0.295000000000000       0.835000000000000       0.420621916655746     
  0.295000000000000       0.850000000000000       0.407112770903921     
  0.295000000000000       0.865000000000000       0.393528625508612     
  0.295000000000000       0.880000000000000       0.379871834869570     
  0.295000000000000       0.895000000000000       0.366144753386544     
  0.295000000000000       0.910000000000000       0.352349735459285     
  0.295000000000000       0.925000000000000       0.338489135487544     
  0.295000000000000       0.940000000000000       0.324565307871070     
  0.295000000000000       0.955000000000000       0.310580607009615     
  0.295000000000000       0.970000000000000       0.296537387302927     
  0.295000000000000       0.985000000000000       0.282438003150759     
  0.295000000000000        1.00000000000000       0.268284808952860     
  0.295000000000000        1.01500000000000       0.254080159108980     
  0.295000000000000        1.03000000000000       0.239826408018870     
  0.295000000000000        1.04500000000000       0.225525910082281     
  0.295000000000000        1.06000000000000       0.211181019698962     
  0.295000000000000        1.07500000000000       0.196794091268663     
  0.295000000000000        1.09000000000000       0.182367479191136     
  0.295000000000000        1.10500000000000       0.167903537866131     
  0.295000000000000        1.12000000000000       0.153404621693397     
  0.295000000000000        1.13500000000000       0.138873085072686     
  0.295000000000000        1.15000000000000       0.124311282403747     
  0.295000000000000        1.16500000000000       0.109721568086331     
  0.295000000000000        1.18000000000000       9.510629652018830E-002
  0.295000000000000        1.19500000000000       8.046782210506931E-002
  0.295000000000000        1.21000000000000       6.580849924072436E-002
  0.295000000000000        1.22500000000000       5.113068232690324E-002
  0.295000000000000        1.24000000000000       3.643672576335749E-002
  0.295000000000000        1.25500000000000       2.172898394983605E-002
  0.295000000000000        1.27000000000000       7.009811286090212E-003
  0.295000000000000        1.28500000000000      -7.718437828129587E-003
  0.295000000000000        1.30000000000000      -2.245340899307369E-002
  0.295000000000000        1.31500000000000      -3.719274780899134E-002
  0.295000000000000        1.33000000000000      -5.193409987613268E-002
  0.295000000000000        1.34500000000000      -6.667511079474664E-002
  0.295000000000000        1.36000000000000      -8.141342616508310E-002
  0.295000000000000        1.37500000000000      -9.614669158739211E-002
  0.295000000000000        1.39000000000000      -0.110872552661923     
  0.295000000000000        1.40500000000000      -0.125588654988925     
  0.295000000000000        1.42000000000000      -0.140292644168649     
  0.295000000000000        1.43500000000000      -0.154982165801343     
  0.295000000000000        1.45000000000000      -0.169654865487258     
  0.295000000000000        1.46500000000000      -0.184308388826644     
  0.295000000000000        1.48000000000000      -0.198940381419748     
  0.295000000000000        1.49500000000000      -0.213548488866823     
  0.295000000000000        1.51000000000000      -0.228130356768117     
  0.295000000000000        1.52500000000000      -0.242683630723879     
  0.295000000000000        1.54000000000000      -0.257205956334360     
  0.295000000000000        1.55500000000000      -0.271694979199809     
  0.295000000000000        1.57000000000000      -0.286148344920476     
  0.295000000000000        1.58500000000000      -0.300563699096610     
  0.295000000000000        1.60000000000000      -0.314938687328462     
  0.295000000000000        1.61500000000000      -0.329270955216280     
  0.295000000000000        1.63000000000000      -0.343558148360315     
  0.295000000000000        1.64500000000000      -0.357797912360816     
  0.295000000000000        1.66000000000000      -0.371987892818032     
  0.295000000000000        1.67500000000000      -0.386125735332213     
  0.295000000000000        1.69000000000000      -0.400209085503611     
  0.295000000000000        1.70500000000000      -0.414235588932472     
  0.295000000000000        1.72000000000000      -0.428202891219048     
  0.295000000000000        1.73500000000000      -0.442108637963588     
  0.295000000000000        1.75000000000000      -0.455950474766341     
  0.310000000000000       0.250000000000000       0.855549714004505     
  0.310000000000000       0.265000000000000       0.846618028970568     
  0.310000000000000       0.280000000000000       0.837522199479816     
  0.310000000000000       0.295000000000000       0.828264579931999     
  0.310000000000000       0.310000000000000       0.818847524726866     