 variables= "x","y","fpcb"
 zone i=         156  datapacking=point
  0.000000000000000E+000  0.000000000000000E+000  0.000000000000000E+000
  -1.81037037625530       -1.28686068836055       0.000000000000000E+000
 -0.713095372800480       0.459683761623352       0.000000000000000E+000
 -0.266657756526399        1.17770912289195       0.000000000000000E+000
   1.19217721723194        1.75722868339154       0.000000000000000E+000
 -0.168418822635190       -1.16660904033300       0.000000000000000E+000
  -1.52424292685068      -0.652686237167027       0.000000000000000E+000
  0.230946701886943        1.57513943394771       0.000000000000000E+000
  0.793945930154129       -1.90426064532700       0.000000000000000E+000
   1.66743013907491      -0.181393198668781       0.000000000000000E+000
 -0.956197995053810       0.779055428702991       0.000000000000000E+000
   1.54393377504926      -0.233591399788787       0.000000000000000E+000
  -1.99011014473482        1.94459135600076       0.000000000000000E+000
  -1.99801462162233        1.26841929786541       0.000000000000000E+000
  -1.99845248717707       0.687845912198451       0.000000000000000E+000
   1.99172800757350        1.99336948215205       0.000000000000000E+000
  -1.99314907448495       6.948293425396601E-002  0.000000000000000E+000
   1.98505071766834        1.42510687970811       0.000000000000000E+000
   1.98686181635673       -1.97580155740521       0.000000000000000E+000
  -1.50167312185043        1.62716291016132       0.000000000000000E+000
  -1.27320958021267       -1.94218776197853       0.000000000000000E+000
  -1.33215645929733       -1.46471267441005       0.000000000000000E+000
  -1.98804029273693       -1.99052411869511       0.000000000000000E+000
   1.72751416532373       -1.57234161290598       0.000000000000000E+000
  -1.13596901048700        1.92999429919419       0.000000000000000E+000
 -0.852692869136997       -1.69204516813070       0.000000000000000E+000
  -1.05501423038050        1.44884534398785       0.000000000000000E+000
   1.36735417690377      -0.673615569115085       0.000000000000000E+000
  -1.36127016006750        1.06172931158492       0.000000000000000E+000
  7.731418830831593E-002  0.822976585780343       0.000000000000000E+000
   1.99561991194990       -1.05977019010419       0.000000000000000E+000
   1.98466231653478      -0.669544581587217       0.000000000000000E+000
   1.53075294962577       -1.97248998024246       0.000000000000000E+000
   1.52293536111085        1.07338632440891       0.000000000000000E+000
   1.11352529911952        1.02208265336364       0.000000000000000E+000
  -1.60673184146003       0.255202076411993       0.000000000000000E+000
   1.99756496564146       2.095519107288579E-002  0.000000000000000E+000
  0.932091313491613       0.681830709369204       0.000000000000000E+000
  -1.99907451819940      -0.838857635370687       0.000000000000000E+000
 -0.485646586664807        1.99983938714183       0.000000000000000E+000
   1.53416213633332        1.54245084189831       0.000000000000000E+000
   1.29811092659444       -1.61894245641053       0.000000000000000E+000
  0.660626251104195        1.99837651315980       0.000000000000000E+000
  -1.99425765899433       -1.59267981689884       0.000000000000000E+000
  0.311692621816919        1.99775514625317       0.000000000000000E+000
   1.66139884389833        1.97962707936485       0.000000000000000E+000
 -0.902030181653273      -0.722966279281207       0.000000000000000E+000
  -1.85447442502087      -0.511845599344495       0.000000000000000E+000
  -1.09157315302863      -0.463682166878003       0.000000000000000E+000
  -1.64545446064932       -1.98125240749535       0.000000000000000E+000
 -0.127703188680176       -1.99911891398110       0.000000000000000E+000
  0.764742322752021      -0.697111481186711       0.000000000000000E+000
   1.97854653093597       0.921071712582112       0.000000000000000E+000
  0.441749329923527      -0.662553403407979       0.000000000000000E+000
   1.72014646648715      -0.854887416029592       0.000000000000000E+000
  0.728415651866241      -0.342038752149269       0.000000000000000E+000
  -1.70303623244961        1.98406151911246       0.000000000000000E+000
   1.99874053224544       -1.67612367815923       0.000000000000000E+000
   1.84496167323875       0.424599605544739       0.000000000000000E+000
  -1.82212331657491       0.959121309502928       0.000000000000000E+000
  -1.90150028567999       0.331304931653893       0.000000000000000E+000
  -1.42846908158479        1.93737637482200       0.000000000000000E+000
   1.80955803870145       0.696023263281407       0.000000000000000E+000
  -1.71372413380917        1.30028866776463       0.000000000000000E+000
  -1.73297286361987       0.666337950111320       0.000000000000000E+000
   1.98629106866711       -1.38723531991526       0.000000000000000E+000
   1.60061594891818       0.320140113314672       0.000000000000000E+000
 -0.353144795690454      -0.422089007660618       0.000000000000000E+000
  0.339477877420115       -1.20529660303562       0.000000000000000E+000
   1.82359558258893        1.17522377832309       0.000000000000000E+000
  -1.79683320384048        1.55307121316187       0.000000000000000E+000
   1.33323094538358       0.173338180582655       0.000000000000000E+000
   1.89278309516047        1.74610284003620       0.000000000000000E+000
  0.767242164937424        1.18000779912584       0.000000000000000E+000
 -0.241135187845837        1.99732001519208       0.000000000000000E+000
  -1.80864653431469       -1.76284261179421       0.000000000000000E+000
 -0.407620639970183        1.77147664288238       0.000000000000000E+000
 -0.103022550705933        1.60491925774836       0.000000000000000E+000
  0.632927543283120        1.49114078405439       0.000000000000000E+000
  -1.98849681211195      -0.287320362664830       0.000000000000000E+000
  -1.32217074684398       0.295492355296509       0.000000000000000E+000
   1.40739521273438        1.99133295219751       0.000000000000000E+000
 -0.734132159708516        1.44354233998950       0.000000000000000E+000
  -1.58279371671229      -0.211041469181077       0.000000000000000E+000
  0.757634957407057       0.935111978656741       0.000000000000000E+000
  0.912696116794023        1.38440858642105       0.000000000000000E+000
  -1.79124568338864      -9.683376344166472E-002  0.000000000000000E+000
 -0.598492492589973       -1.99655711451833       0.000000000000000E+000
 -0.362503377293859        1.48943412470958       0.000000000000000E+000
 -0.410941262609219       0.607924767240644       0.000000000000000E+000
   1.77225832472790       -1.98571810468964       0.000000000000000E+000
  -1.95304187800822        1.73190578036544       0.000000000000000E+000
   1.79147064055886        1.54756413048595       0.000000000000000E+000
   1.97911713789603       0.253008351060648       0.000000000000000E+000
   1.22756371756286       -1.97922624444965       0.000000000000000E+000
  0.897980861012422       -1.12996088150962       0.000000000000000E+000
  0.560367261820065       0.452425488921452       0.000000000000000E+000
  0.211545676837818       0.503817977391273       0.000000000000000E+000
  0.578967524168523       0.238204225113327       0.000000000000000E+000
   1.67557281230107        1.33907601232577       0.000000000000000E+000
  0.496333080211233      -9.764484249338756E-002  0.000000000000000E+000
  0.797402930621514       -1.36223506721661       0.000000000000000E+000
 -0.588674585121259      -0.174519686034765       0.000000000000000E+000
  0.774127161261678       0.399862451720905       0.000000000000000E+000
   1.01321784941387       -1.98043286554556       0.000000000000000E+000
  0.372865602592592       0.152343674213395       0.000000000000000E+000
   1.07837577494268      -0.997024237552771       0.000000000000000E+000
   1.25985646099813        1.30782734692572       0.000000000000000E+000
 -0.522138577679623       -1.13984596155671       0.000000000000000E+000
 -0.351328501974120       4.243474446722795E-002  0.000000000000000E+000
  0.435068965255208       0.941606807588789       0.000000000000000E+000
 -5.620191394510865E-002 -0.715080074518869       0.000000000000000E+000
 -0.164304129766074       -1.79037426350693       0.000000000000000E+000
  6.980732149229540E-002 -0.465766102787383       0.000000000000000E+000
 -0.333736276502612       -1.63794650702549       0.000000000000000E+000
  -1.06888721311694       -1.16112772375659       0.000000000000000E+000
  0.945853480027348        1.94647118785328       0.000000000000000E+000
  0.384704828053839       -1.98707834673239       0.000000000000000E+000
  -1.25912097383231      -0.759390683113883       0.000000000000000E+000
  0.315161847574041       0.797065212307980       0.000000000000000E+000
 -0.178522072538060       0.634055557738081       0.000000000000000E+000
  -1.14625539026217      -0.916819323242671       0.000000000000000E+000
  7.317757125531088E-002 -0.848712124688515       0.000000000000000E+000
   1.53746087121844       -1.18178426794419       0.000000000000000E+000
   1.45641840000097       0.713014209648683       0.000000000000000E+000
  0.339071784123518        1.10189857661327       0.000000000000000E+000
  0.158622197349461      -0.639694864592016       0.000000000000000E+000
  -1.00697083584452       -1.34187693062829       0.000000000000000E+000
   1.99835639177706       0.719575920342064       0.000000000000000E+000
  -1.25298265514551       -1.13030819886267       0.000000000000000E+000
  -1.99346073337080        1.03369458697498       0.000000000000000E+000
   1.56531453174804       -1.37471884526626       0.000000000000000E+000
  -1.80242707480251      -0.888588258268224       0.000000000000000E+000
  -1.99964265982401       -1.21816450672624       0.000000000000000E+000
   1.99903253724026        1.62073182668755       0.000000000000000E+000
  -1.45040464054721       0.451922808117925       0.000000000000000E+000
  0.451655241491669       -1.62415428595421       0.000000000000000E+000
  -1.63402634546089      -0.904099054720501       0.000000000000000E+000
   1.83286733280293       -1.11809460756245       0.000000000000000E+000
  -1.92987877996429       -1.00088142634133       0.000000000000000E+000
 -0.724471911468594        1.20391278179692       0.000000000000000E+000
 -0.612067184203726        1.06532751955153       0.000000000000000E+000
 -0.974163319181739        1.98678875960463       0.000000000000000E+000
  -1.34899942607964       0.676261505716216       0.000000000000000E+000
   1.16820954072186      -0.422901578043651       0.000000000000000E+000
   1.07616008791893      -0.208608833211581       0.000000000000000E+000
 -0.628392100696263        1.74488187891546       0.000000000000000E+000
  0.172318571187315       -1.32551223559432       0.000000000000000E+000
 -0.507894447143519      -0.816157799962063       0.000000000000000E+000
   1.93100229322341      -0.481608583662497       0.000000000000000E+000
  0.317570995346237       -1.77061526960444       0.000000000000000E+000
  -1.88584536592954       0.563805337019536       0.000000000000000E+000
 -0.703270665565370       0.865424937613960       0.000000000000000E+000
  -1.59747657943307       0.830447666215171       0.000000000000000E+000
   1.90005001549127      -0.917380290418214       0.000000000000000E+000
  -1.80598512872531      -0.724687253055116       0.000000000000000E+000
