 variables= "x","y","fPC"
 zone i=         101  j=         101  datapacking=point
  -2.00000000000000       -2.00000000000000       8.674945806177675E-002
  -2.00000000000000       -1.96000000000000       0.114629086627701     
  -2.00000000000000       -1.92000000000000       0.131604458792925     
  -2.00000000000000       -1.88000000000000       0.140911311827864     
  -2.00000000000000       -1.84000000000000       0.145053654869334     
  -2.00000000000000       -1.80000000000000       0.145932727298127     
  -2.00000000000000       -1.76000000000000       0.144958233669023     
  -2.00000000000000       -1.72000000000000       0.143143725285865     
  -2.00000000000000       -1.68000000000000       0.141187852143814     
  -2.00000000000000       -1.64000000000000       0.139543070551656     
  -2.00000000000000       -1.60000000000000       0.138473261034959     
  -2.00000000000000       -1.56000000000000       0.138101587845177     
  -2.00000000000000       -1.52000000000000       0.138449815304277     
  -2.00000000000000       -1.48000000000000       0.139470187046170     
  -2.00000000000000       -1.44000000000000       0.141070871726300     
  -2.00000000000000       -1.40000000000000       0.143135882714439     
  -2.00000000000000       -1.36000000000000       0.145540289421692     
  -2.00000000000000       -1.32000000000000       0.148161454004037     
  -2.00000000000000       -1.28000000000000       0.150886948997830     
  -2.00000000000000       -1.24000000000000       0.153619738748264     
  -2.00000000000000       -1.20000000000000       0.156281140064308     
  -2.00000000000000       -1.16000000000000       0.158812015151222     
  -2.00000000000000       -1.12000000000000       0.161172592316848     
  -2.00000000000000       -1.08000000000000       0.163341257006282     
  -2.00000000000000       -1.04000000000000       0.165312607181508     
  -2.00000000000000       -1.00000000000000       0.167095022721545     
  -2.00000000000000      -0.960000000000000       0.168707958172732     
  -2.00000000000000      -0.920000000000000       0.170179131629243     
  -2.00000000000000      -0.880000000000000       0.171541749576348     
  -2.00000000000000      -0.840000000000000       0.172831877992671     
  -2.00000000000000      -0.800000000000000       0.174086043695880     
  -2.00000000000000      -0.760000000000000       0.175339126646065     
  -2.00000000000000      -0.720000000000000       0.176622583513359     
  -2.00000000000000      -0.680000000000000       0.177963025096098     
  -2.00000000000000      -0.640000000000000       0.179381154971677     
  -2.00000000000000      -0.600000000000000       0.180891063906763     
  -2.00000000000000      -0.560000000000000       0.182499863883352     
  -2.00000000000000      -0.520000000000000       0.184207636952341     
  -2.00000000000000      -0.480000000000000       0.186007667351487     
  -2.00000000000000      -0.440000000000000       0.187886920267486     
  -2.00000000000000      -0.400000000000000       0.189826727134822     
  -2.00000000000000      -0.360000000000000       0.191803635302600     
  -2.00000000000000      -0.320000000000000       0.193790379124673     
  -2.00000000000000      -0.280000000000000       0.195756929901603     
  -2.00000000000000      -0.240000000000000       0.197671583492755     
  -2.00000000000000      -0.200000000000000       0.199502046694715     
  -2.00000000000000      -0.160000000000000       0.201216486523216     
  -2.00000000000000      -0.120000000000000       0.202784510219239     
  -2.00000000000000      -8.000000000000007E-002  0.204178048008773     
  -2.00000000000000      -4.000000000000004E-002  0.205372115266846     
  -2.00000000000000       0.000000000000000E+000  0.206345435660605     
  -2.00000000000000       4.000000000000004E-002  0.207080911968072     
  -2.00000000000000       8.000000000000007E-002  0.207565936487301     
  -2.00000000000000       0.120000000000000       0.207792538167333     
  -2.00000000000000       0.160000000000000       0.207757368713932     
  -2.00000000000000       0.200000000000000       0.207461534859748     
  -2.00000000000000       0.240000000000000       0.206910288654228     
  -2.00000000000000       0.280000000000000       0.206112591941340     
  -2.00000000000000       0.320000000000000       0.205080575074660     
  -2.00000000000000       0.360000000000000       0.203828913295312     
  -2.00000000000000       0.400000000000000       0.202374146998195     
  -2.00000000000000       0.440000000000000       0.200733974269280     
  -2.00000000000000       0.480000000000000       0.198926545528840     
  -2.00000000000000       0.520000000000000       0.196969790803435     
  -2.00000000000000       0.560000000000000       0.194880810018393     
  -2.00000000000000       0.600000000000000       0.192675355701330     
  -2.00000000000000       0.640000000000000       0.190367435568733     
  -2.00000000000000       0.680000000000000       0.187969059588534     
  -2.00000000000000       0.720000000000000       0.185490152232404     
  -2.00000000000000       0.760000000000000       0.182938645716735     
  -2.00000000000000       0.800000000000000       0.180320764049216     
  -2.00000000000000       0.840000000000000       0.177641500620767     
  -2.00000000000000       0.880000000000000       0.174905283886439     
  -2.00000000000000       0.920000000000000       0.172116816343718     
  -2.00000000000000       0.960000000000000       0.169282061526223     
  -2.00000000000000        1.00000000000000       0.166409342072896     
  -2.00000000000000        1.04000000000000       0.163510499098957     
  -2.00000000000000        1.08000000000000       0.160602049080586     
  -2.00000000000000        1.12000000000000       0.157706259269942     
  -2.00000000000000        1.16000000000000       0.154852046283840     
  -2.00000000000000        1.20000000000000       0.152075584965357     
  -2.00000000000000        1.24000000000000       0.149420495913837     
  -2.00000000000000        1.28000000000000       0.146937460229838     
  -2.00000000000000        1.32000000000000       0.144683089046737     
  -2.00000000000000        1.36000000000000       0.142717853341880     
  -2.00000000000000        1.40000000000000       0.141102856364606     
  -2.00000000000000        1.44000000000000       0.139895206815883     
  -2.00000000000000        1.48000000000000       0.139141725699337     
  -2.00000000000000        1.52000000000000       0.138870693574117     
  -2.00000000000000        1.56000000000000       0.139081317818230     
  -2.00000000000000        1.60000000000000       0.139730571502801     
  -2.00000000000000        1.64000000000000       0.140717026632630     
  -2.00000000000000        1.68000000000000       0.141861274880383     
  -2.00000000000000        1.72000000000000       0.142882498587985     
  -2.00000000000000        1.76000000000000       0.143370723790858     
  -2.00000000000000        1.80000000000000       0.142754255403795     
  -2.00000000000000        1.84000000000000       0.140261762560569     
  -2.00000000000000        1.88000000000000       0.134878449495823     
  -2.00000000000000        1.92000000000000       0.125295714374679     
  -2.00000000000000        1.96000000000000       0.109853665192764     
  -2.00000000000000        2.00000000000000       8.647582837263040E-002
  -1.96000000000000       -2.00000000000000       9.506112254158500E-002
  -1.96000000000000       -1.96000000000000       0.118718035297865     
  -1.96000000000000       -1.92000000000000       0.132542601175867     
  -1.96000000000000       -1.88000000000000       0.139577400093006     
  -1.96000000000000       -1.84000000000000       0.142160898247513     
  -1.96000000000000       -1.80000000000000       0.142053218126603     
  -1.96000000000000       -1.76000000000000       0.140544477976338     
  -1.96000000000000       -1.72000000000000       0.138547550042604     
  -1.96000000000000       -1.68000000000000       0.136676941612033     
  -1.96000000000000       -1.64000000000000       0.135315365523424     
  -1.96000000000000       -1.60000000000000       0.134669437120958     
  -1.96000000000000       -1.56000000000000       0.134815812320164     
  -1.96000000000000       -1.52000000000000       0.135738966300600     
  -1.96000000000000       -1.48000000000000       0.137361704073587     
  -1.96000000000000       -1.44000000000000       0.139569392550763     
  -1.96000000000000       -1.40000000000000       0.142228808515800     
  -1.96000000000000       -1.36000000000000       0.145202407836850     
  -1.96000000000000       -1.32000000000000       0.148358738114597     
  -1.96000000000000       -1.28000000000000       0.151579639508025     
  -1.96000000000000       -1.24000000000000       0.154764806487847     
  -1.96000000000000       -1.20000000000000       0.157834216511894     
  -1.96000000000000       -1.16000000000000       0.160728869875893     
  -1.96000000000000       -1.12000000000000       0.163410228050702     
  -1.96000000000000       -1.08000000000000       0.165858685459365     
  -1.96000000000000       -1.04000000000000       0.168071361665453     
  -1.96000000000000       -1.00000000000000       0.170059457132355     
  -1.96000000000000      -0.960000000000000       0.171845375870081     
  -1.96000000000000      -0.920000000000000       0.173459782214012     
  -1.96000000000000      -0.880000000000000       0.174938726485064     
  -1.96000000000000      -0.840000000000000       0.176320945172996     
  -1.96000000000000      -0.800000000000000       0.177645415378143     
  -1.96000000000000      -0.760000000000000       0.178949220359410     
  -1.96000000000000      -0.720000000000000       0.180265762989640     
  -1.96000000000000      -0.680000000000000       0.181623346539226     
  -1.96000000000000      -0.640000000000000       0.183044127324278     
  -1.96000000000000      -0.600000000000000       0.184543431200404     
  -1.96000000000000      -0.560000000000000       0.186129415494180     
  -1.96000000000000      -0.520000000000000       0.187803049583032     
  -1.96000000000000      -0.480000000000000       0.189558380805273     
  -1.96000000000000      -0.440000000000000       0.191383047554492     
  -1.96000000000000      -0.400000000000000       0.193258998138922     
  -1.96000000000000      -0.360000000000000       0.195163372123651     
  -1.96000000000000      -0.320000000000000       0.197069500281870     
  -1.96000000000000      -0.280000000000000       0.198947979825258     
  -1.96000000000000      -0.240000000000000       0.200767783131337     
  -1.96000000000000      -0.200000000000000       0.202497360609272     
  -1.96000000000000      -0.160000000000000       0.204105701521128     
  -1.96000000000000      -0.120000000000000       0.205563320383013     
  -1.96000000000000      -8.000000000000007E-002  0.206843140893429     
  -1.96000000000000      -4.000000000000004E-002  0.207921254062343     
  -1.96000000000000       0.000000000000000E+000  0.208777532235342     
  -1.96000000000000       4.000000000000004E-002  0.209396085918171     
  -1.96000000000000       8.000000000000007E-002  0.209765555607349     
  -1.96000000000000       0.120000000000000       0.209879236125422     
  -1.96000000000000       0.160000000000000       0.209735036151807     
  -1.96000000000000       0.200000000000000       0.209335280643104     
  -1.96000000000000       0.240000000000000       0.208686368564846     
  -1.96000000000000       0.280000000000000       0.207798302728642     
  -1.96000000000000       0.320000000000000       0.206684112467161     
  -1.96000000000000       0.360000000000000       0.205359193310609     
  -1.96000000000000       0.400000000000000       0.203840590682847     
  -1.96000000000000       0.440000000000000       0.202146256846915     
  -1.96000000000000       0.480000000000000       0.200294311836907     
  -1.96000000000000       0.520000000000000       0.198302339857393     
  -1.96000000000000       0.560000000000000       0.196186752559050     
  -1.96000000000000       0.600000000000000       0.193962249659361     
  -1.96000000000000       0.640000000000000       0.191641405523708     
  -1.96000000000000       0.680000000000000       0.189234407512463     
  -1.96000000000000       0.720000000000000       0.186748968095013     
  -1.96000000000000       0.760000000000000       0.184190427897209     
  -1.96000000000000       0.800000000000000       0.181562060953696     
  -1.96000000000000       0.840000000000000       0.178865586453718     
  -1.96000000000000       0.880000000000000       0.176101883175322     
  -1.96000000000000       0.920000000000000       0.173271893578984     
  -1.96000000000000       0.960000000000000       0.170377694162144     
  -1.96000000000000        1.00000000000000       0.167423697149481     
  -1.96000000000000        1.04000000000000       0.164417935902280     
  -1.96000000000000        1.08000000000000       0.161373372570122     
  -1.96000000000000        1.12000000000000       0.158309151479531     
  -1.96000000000000        1.16000000000000       0.155251705561061     
  -1.96000000000000        1.20000000000000       0.152235605766460     
  -1.96000000000000        1.24000000000000       0.149304024932690     
  -1.96000000000000        1.28000000000000       0.146508667925426     
  -1.96000000000000        1.32000000000000       0.143908999160580     
  -1.96000000000000        1.36000000000000       0.141570576781722     
  -1.96000000000000        1.40000000000000       0.139562279891465     
  -1.96000000000000        1.44000000000000       0.137952191326672     
  -1.96000000000000        1.48000000000000       0.136801873566193     
  -1.96000000000000        1.52000000000000       0.136158749504157     
  -1.96000000000000        1.56000000000000       0.136046273054691     
  -1.96000000000000        1.60000000000000       0.136451546921900     
  -1.96000000000000        1.64000000000000       0.137310016422253     
  -1.96000000000000        1.68000000000000       0.138486839040060     
  -1.96000000000000        1.72000000000000       0.139754499488150     
  -1.96000000000000        1.76000000000000       0.140766209497875     
  -1.96000000000000        1.80000000000000       0.141024600440786     
  -1.96000000000000        1.84000000000000       0.139845185258807     
  -1.96000000000000        1.88000000000000       0.136314034124184     
  -1.96000000000000        1.92000000000000       0.129239075842836     
  -1.96000000000000        1.96000000000000       0.117094404335751     
  -1.96000000000000        2.00000000000000       9.795693666925331E-002
  -1.92000000000000       -2.00000000000000       0.102321204207950     
  -1.92000000000000       -1.96000000000000       0.122402177888374     
  -1.92000000000000       -1.92000000000000       0.133616521204370     
  -1.92000000000000       -1.88000000000000       0.138826695227418     
  -1.92000000000000       -1.84000000000000       0.140217423973675     
  -1.92000000000000       -1.80000000000000       0.139418369904565     
  -1.92000000000000       -1.76000000000000       0.137609666026998     
  -1.92000000000000       -1.72000000000000       0.135612133395846     
  -1.92000000000000       -1.68000000000000       0.133963868621812     
  -1.92000000000000       -1.64000000000000       0.132984749672072     
  -1.92000000000000       -1.60000000000000       0.132830279555847     
  -1.92000000000000       -1.56000000000000       0.133536066153778     
  -1.92000000000000       -1.52000000000000       0.135054122223218     
  -1.92000000000000       -1.48000000000000       0.137282062240297     
  -1.92000000000000       -1.44000000000000       0.140086171976460     
  -1.92000000000000       -1.40000000000000       0.143319232308610     
  -1.92000000000000       -1.36000000000000       0.146833890488574     
  -1.92000000000000       -1.32000000000000       0.150492289713443     
  -1.92000000000000       -1.28000000000000       0.154172591111784     
  -1.92000000000000       -1.24000000000000       0.157772950963654     
  -1.92000000000000       -1.20000000000000       0.161213449880916     
  -1.92000000000000       -1.16000000000000       0.164436409568038     
  -1.92000000000000       -1.12000000000000       0.167405476446438     
  -1.92000000000000       -1.08000000000000       0.170103799644737     
  -1.92000000000000       -1.04000000000000       0.172531583424589     
  -1.92000000000000       -1.00000000000000       0.174703250822453     
  -1.92000000000000      -0.960000000000000       0.176644415940757     
  -1.92000000000000      -0.920000000000000       0.178388826720668     
  -1.92000000000000      -0.880000000000000       0.179975407979879     
  -1.92000000000000      -0.840000000000000       0.181445505813472     
  -1.92000000000000      -0.800000000000000       0.182840408948526     
  -1.92000000000000      -0.760000000000000       0.184199200132475     
  -1.92000000000000      -0.720000000000000       0.185556970943587     
  -1.92000000000000      -0.680000000000000       0.186943416365816     
  -1.92000000000000      -0.640000000000000       0.188381810899752     
  -1.92000000000000      -0.600000000000000       0.189888355720680     
  -1.92000000000000      -0.560000000000000       0.191471876281718     
  -1.92000000000000      -0.520000000000000       0.193133841636590     
  -1.92000000000000      -0.480000000000000       0.194868670468422     
  -1.92000000000000      -0.440000000000000       0.196664284207780     
  -1.92000000000000      -0.400000000000000       0.198502864558259     
  -1.92000000000000      -0.360000000000000       0.200361771078932     
  -1.92000000000000      -0.320000000000000       0.202214574060838     
  -1.92000000000000      -0.280000000000000       0.204032158644718     
  -1.92000000000000      -0.240000000000000       0.205783857828372     
  -1.92000000000000      -0.200000000000000       0.207438574577060     
  -1.92000000000000      -0.160000000000000       0.208965856556275     
  -1.92000000000000      -0.120000000000000       0.210336890933347     
  -1.92000000000000      -8.000000000000007E-002  0.211525391127414     
  -1.92000000000000      -4.000000000000004E-002  0.212508352214600     
  -1.92000000000000       0.000000000000000E+000  0.213266656809016     
  -1.92000000000000       4.000000000000004E-002  0.213785518536653     
  -1.92000000000000       8.000000000000007E-002  0.214054755598362     
  -1.92000000000000       0.120000000000000       0.214068892283732     
  -1.92000000000000       0.160000000000000       0.213827091557716     
  -1.92000000000000       0.200000000000000       0.213332926907770     
  -1.92000000000000       0.240000000000000       0.212594006426788     
  -1.92000000000000       0.280000000000000       0.211621466535465     
  -1.92000000000000       0.320000000000000       0.210429356740308     
  -1.92000000000000       0.360000000000000       0.209033940307454     
  -1.92000000000000       0.400000000000000       0.207452938638777     
  -1.92000000000000       0.440000000000000       0.205704749400396     
  -1.92000000000000       0.480000000000000       0.203807670013460     
  -1.92000000000000       0.520000000000000       0.201779158915590     
  -1.92000000000000       0.560000000000000       0.199635166985228     
  -1.92000000000000       0.600000000000000       0.197389570640736     
  -1.92000000000000       0.640000000000000       0.195053736335771     
  -1.92000000000000       0.680000000000000       0.192636243430354     
  -1.92000000000000       0.720000000000000       0.190142788685324     
  -1.92000000000000       0.760000000000000       0.187576290872262     
  -1.92000000000000       0.800000000000000       0.184937208181558     
  -1.92000000000000       0.840000000000000       0.182224074221571     
  -1.92000000000000       0.880000000000000       0.179434250409411     
  -1.92000000000000       0.920000000000000       0.176564883440313     
  -1.92000000000000       0.960000000000000       0.173614046273042     
  -1.92000000000000        1.00000000000000       0.170582029672594     
  -1.92000000000000        1.04000000000000       0.167472738801669     
  -1.92000000000000        1.08000000000000       0.164295135645953     
  -1.92000000000000        1.12000000000000       0.161064653196005     
  -1.92000000000000        1.16000000000000       0.157804491295236     
  -1.92000000000000        1.20000000000000       0.154546686907633     
  -1.92000000000000        1.24000000000000       0.151332833273044     
  -1.92000000000000        1.28000000000000       0.148214303018350     
  -1.92000000000000        1.32000000000000       0.145251809799876     
  -1.92000000000000        1.36000000000000       0.142514121490119     
  -1.92000000000000        1.40000000000000       0.140075715318217     
  -1.92000000000000        1.44000000000000       0.138013141760492     
  -1.92000000000000        1.48000000000000       0.136399839390418     
  -1.92000000000000        1.52000000000000       0.135299117376472     
  -1.92000000000000        1.56000000000000       0.134754995904538     
  -1.92000000000000        1.60000000000000       0.134780567546691     
  -1.92000000000000        1.64000000000000       0.135343514551153     
  -1.92000000000000        1.68000000000000       0.136348388244451     
  -1.92000000000000        1.72000000000000       0.137615227274978     
  -1.92000000000000        1.76000000000000       0.138854061350534     
  -1.92000000000000        1.80000000000000       0.139634816497314     
  -1.92000000000000        1.84000000000000       0.139352106765345     
  -1.92000000000000        1.88000000000000       0.137184365799661     
  -1.92000000000000        1.92000000000000       0.132046739866104     
  -1.92000000000000        1.96000000000000       0.122537131847946     
  -1.92000000000000        2.00000000000000       0.106874753500413     
  -1.88000000000000       -2.00000000000000       0.108558056401604     
  -1.88000000000000       -1.96000000000000       0.125636609484841     
  -1.88000000000000       -1.92000000000000       0.134716156640098     
  -1.88000000000000       -1.88000000000000       0.138491374284642     
  -1.88000000000000       -1.84000000000000       0.139004387537559     
  -1.88000000000000       -1.80000000000000       0.137764442764180     
  -1.88000000000000       -1.76000000000000       0.135850718165253     
  -1.88000000000000       -1.72000000000000       0.134000080981517     
  -1.88000000000000       -1.68000000000000       0.132681456757115     
  -1.88000000000000       -1.64000000000000       0.132158340823396     
  -1.88000000000000       -1.60000000000000       0.132540854464976     
  -1.88000000000000       -1.56000000000000       0.133828627855288     
  -1.88000000000000       -1.52000000000000       0.135945678544035     
  -1.88000000000000       -1.48000000000000       0.138768347793886     
  -1.88000000000000       -1.44000000000000       0.142147257152032     
  -1.88000000000000       -1.40000000000000       0.145924154060538     
  -1.88000000000000       -1.36000000000000       0.149944427819628     
  -1.88000000000000       -1.32000000000000       0.154065995584584     
  -1.88000000000000       -1.28000000000000       0.158165182069229     
  -1.88000000000000       -1.24000000000000       0.162140146019385     
  -1.88000000000000       -1.20000000000000       0.165912341085256     
  -1.88000000000000       -1.16000000000000       0.169426438242662     
  -1.88000000000000       -1.12000000000000       0.172649081174163     
  -1.88000000000000       -1.08000000000000       0.175566794810314     
  -1.88000000000000       -1.04000000000000       0.178183320341169     
  -1.88000000000000       -1.00000000000000       0.180516607234402     
  -1.88000000000000      -0.960000000000000       0.182595653939231     
  -1.88000000000000      -0.920000000000000       0.184457353818436     
  -1.88000000000000      -0.880000000000000       0.186143471241812     
  -1.88000000000000      -0.840000000000000       0.187697844505104     
  -1.88000000000000      -0.800000000000000       0.189163887124102     
  -1.88000000000000      -0.760000000000000       0.190582436913631     
  -1.88000000000000      -0.720000000000000       0.191989982918768     
  -1.88000000000000      -0.680000000000000       0.193417283547845     
  -1.88000000000000      -0.640000000000000       0.194888374994668     
  -1.88000000000000      -0.600000000000000       0.196419957065679     
  -1.88000000000000      -0.560000000000000       0.198021133685258     
  -1.88000000000000      -0.520000000000000       0.199693477481644     
  -1.88000000000000      -0.480000000000000       0.201431381803424     
  -1.88000000000000      -0.440000000000000       0.203222659132643     
  -1.88000000000000      -0.400000000000000       0.205049341999510     
  -1.88000000000000      -0.360000000000000       0.206888641023545     
  -1.88000000000000      -0.320000000000000       0.208714014468786     
  -1.88000000000000      -0.280000000000000       0.210496304572251     
  -1.88000000000000      -0.240000000000000       0.212204897754956     
  -1.88000000000000      -0.200000000000000       0.213808868527043     
  -1.88000000000000      -0.160000000000000       0.215278070330442     
  -1.88000000000000      -0.120000000000000       0.216584140605474     
  -1.88000000000000      -8.000000000000007E-002  0.217701391906897     
  -1.88000000000000      -4.000000000000004E-002  0.218607565819596     
  -1.88000000000000       0.000000000000000E+000  0.219284431627043     
  -1.88000000000000       4.000000000000004E-002  0.219718217064028     
  -1.88000000000000       8.000000000000007E-002  0.219899863939478     
  -1.88000000000000       0.120000000000000       0.219825106850305     
  -1.88000000000000       0.160000000000000       0.219494378531499     
  -1.88000000000000       0.200000000000000       0.218912550513599     
  -1.88000000000000       0.240000000000000       0.218088522602528     
  -1.88000000000000       0.280000000000000       0.217034679178611     
  -1.88000000000000       0.320000000000000       0.215766234355565     
  -1.88000000000000       0.360000000000000       0.214300491574195     
  -1.88000000000000       0.400000000000000       0.212656046161201     
  -1.88000000000000       0.440000000000000       0.210851961696730     
  -1.88000000000000       0.480000000000000       0.208906952644347     
  -1.88000000000000       0.520000000000000       0.206838606547722     
  -1.88000000000000       0.560000000000000       0.204662679136472     
  -1.88000000000000       0.600000000000000       0.202392494860789     
  -1.88000000000000       0.640000000000000       0.200038483645425     
  -1.88000000000000       0.680000000000000       0.197607881977564     
  -1.88000000000000       0.720000000000000       0.195104622782606     
  -1.88000000000000       0.760000000000000       0.192529433863805     
  -1.88000000000000       0.800000000000000       0.189880158956523     
  -1.88000000000000       0.840000000000000       0.187152308650019     
  -1.88000000000000       0.880000000000000       0.184339840537537     
  -1.88000000000000       0.920000000000000       0.181436158951173     
  -1.88000000000000       0.960000000000000       0.178435314507685     
  -1.88000000000000        1.00000000000000       0.175333372424931     
  -1.88000000000000        1.04000000000000       0.172129906159969     
  -1.88000000000000        1.08000000000000       0.168829559366558     
  -1.88000000000000        1.12000000000000       0.165443604473560     
  -1.88000000000000        1.16000000000000       0.161991410352018     
  -1.88000000000000        1.20000000000000       0.158501714576750     
  -1.88000000000000        1.24000000000000       0.155013577711433     
  -1.88000000000000        1.28000000000000       0.151576877871450     
  -1.88000000000000        1.32000000000000       0.148252183567167     
  -1.88000000000000        1.36000000000000       0.145109821526696     
  -1.88000000000000        1.40000000000000       0.142227933870287     
  -1.88000000000000        1.44000000000000       0.139689295690895     
  -1.88000000000000        1.48000000000000       0.137576639823699     
  -1.88000000000000        1.52000000000000       0.135966210401664     
  -1.88000000000000        1.56000000000000       0.134919240739101     
  -1.88000000000000        1.60000000000000       0.134471024208401     
  -1.88000000000000        1.64000000000000       0.134617219129017     
  -1.88000000000000        1.68000000000000       0.135297000327943     
  -1.88000000000000        1.72000000000000       0.136372641017377     
  -1.88000000000000        1.76000000000000       0.137605079031347     
  -1.88000000000000        1.80000000000000       0.138624991336600     
  -1.88000000000000        1.84000000000000       0.138898870155153     
  -1.88000000000000        1.88000000000000       0.137689563081989     
  -1.88000000000000        1.92000000000000       0.134010708330490     
  -1.88000000000000        1.96000000000000       0.126574464773559     
  -1.88000000000000        2.00000000000000       0.113731904856470     
  -1.84000000000000       -2.00000000000000       0.113847366485661     
  -1.84000000000000       -1.96000000000000       0.128429399912654     
  -1.84000000000000       -1.92000000000000       0.135789668538891     
  -1.84000000000000       -1.88000000000000       0.138466718350117     
  -1.84000000000000       -1.84000000000000       0.138370584541190     