 variables= "x","y","fpcb"
 zone i=         156  datapacking=point
  0.000000000000000E+000  0.000000000000000E+000  0.000000000000000E+000
  0.573697696705580       0.317848495348557       0.000000000000000E+000
  -1.13553871699787       -1.19306582886485       0.000000000000000E+000
  -1.72648918871397       -1.67556747899288       0.000000000000000E+000
   1.44166007238557       -1.62625550918541       0.000000000000000E+000
 -0.564617811305970      -0.112706506596283       0.000000000000000E+000
   1.01390023161328       0.650834606665262       0.000000000000000E+000
   1.71210190826259        1.84996158926338       0.000000000000000E+000
  0.387681327506553      -0.786478151770653       0.000000000000000E+000
  -1.33083750565876      -0.520114882415366       0.000000000000000E+000
 -0.113230062958998        1.33826217650686       0.000000000000000E+000
 -0.512213545583688        1.26330969988346       0.000000000000000E+000
  -1.99887233808785        1.99985508789685       0.000000000000000E+000
  -1.98916989975942        1.32833734689193       0.000000000000000E+000
 -0.289188121749974       -1.99946270920637       0.000000000000000E+000
  -1.39426277206540        1.97916182739669       0.000000000000000E+000
  0.291033506340229       -1.97789344094168       0.000000000000000E+000
 -0.856402771687777       -1.91253998409490       0.000000000000000E+000
  -1.98744653906874       0.739334270165608       0.000000000000000E+000
  -1.41854898210807        1.35732220082492       0.000000000000000E+000
  -1.99103439949459      -0.638638262114699       0.000000000000000E+000
   1.93481213670540       -1.97998048336338       0.000000000000000E+000
  -1.99606176789215      -0.144254371298984       0.000000000000000E+000
   1.03240515529362        1.99900495511134       0.000000000000000E+000
  -1.99699795710396       -1.23067345295194       0.000000000000000E+000
   1.98577380983548        1.47457129279832       0.000000000000000E+000
  0.508416623120169        1.98999953786782       0.000000000000000E+000
   1.99938994770299       0.950993955605651       0.000000000000000E+000
   1.98992973483929      -0.769395775205906       0.000000000000000E+000
   1.16134190604236       -1.99313390386799       0.000000000000000E+000
  -1.98359638980853       -1.99676451981633       0.000000000000000E+000
   1.59692891981480      -0.406195581510841       0.000000000000000E+000
   1.64336118762671      -2.043427884409543E-002  0.000000000000000E+000
   1.35371048036315      -0.711191638161359       0.000000000000000E+000
   1.28722543633968      -0.166283108221267       0.000000000000000E+000
   1.71899844853564       0.360475036643233       0.000000000000000E+000
   1.99819530232135       -1.27558505367205       0.000000000000000E+000
   1.01169018039584      -0.439201418653430       0.000000000000000E+000
   1.33433742337969       0.274133285551481       0.000000000000000E+000
   1.66137581503902        1.23548314594297       0.000000000000000E+000
   1.61686721074008       -1.02893286360678       0.000000000000000E+000
   1.59183476672218       0.751861757739841       0.000000000000000E+000
  -1.68261467901650       0.322460436557675       0.000000000000000E+000
 -0.498604705812161        1.98827959620978       0.000000000000000E+000
 -0.843590459601822        1.97454960284718       0.000000000000000E+000
  -1.69090663769503      -2.063620616689210E-002  0.000000000000000E+000
  -1.36251309001035       0.417316288704484       0.000000000000000E+000
  -1.61381747344024       0.686869266685014       0.000000000000000E+000
  -1.76216746790060      -0.938832842980668       0.000000000000000E+000
  -1.61631674545878       -1.99485447716323       0.000000000000000E+000
  -1.03391208110750       0.416806422542527       0.000000000000000E+000
   1.99940703088021       6.720181083111498E-002  0.000000000000000E+000
 -0.560210846841119        1.66073050215921       0.000000000000000E+000
 -0.119774159180783        1.97633290117141       0.000000000000000E+000
  -1.06164829599636        1.73056969583124       0.000000000000000E+000
 -0.892629230366828       0.727831145036849       0.000000000000000E+000
   1.99756032681079        1.98634620709206       0.000000000000000E+000
   1.62795449593675       -1.92890446511597       0.000000000000000E+000
   1.81237262234563       -1.65884953669534       0.000000000000000E+000
  0.464872456585277        1.64028647534615       0.000000000000000E+000
 -0.336885125436391       -1.02702634049573       0.000000000000000E+000
   1.30313568606635        1.39648639281417       0.000000000000000E+000
  0.920751242308455       -1.45955910916691       0.000000000000000E+000
  0.755471526824363        1.71012223905474       0.000000000000000E+000
 -0.531475759553298       -1.24723366374566       0.000000000000000E+000
  -1.80276477683012        1.66640583985106       0.000000000000000E+000
  0.227479618830339        1.09366992871834       0.000000000000000E+000
  0.348331121026796        1.36504636876188       0.000000000000000E+000
  0.784961409180859       -1.20175723959950       0.000000000000000E+000
   1.08629836035697       -1.69713949474056       0.000000000000000E+000
 -0.611201274580999      -0.940396797819408       0.000000000000000E+000
 -3.930545344147673E-002  0.907731137821447       0.000000000000000E+000
  -1.77019470457855        1.99367561271932       0.000000000000000E+000
  -1.72159184795649        1.41669484915024       0.000000000000000E+000
  -1.80332544741730        1.17711657422461       0.000000000000000E+000
   1.87672055031047        1.67678508675527       0.000000000000000E+000
   1.35387130789101        1.99502212167322       0.000000000000000E+000
  -1.99895852867807       -1.67291340453928       0.000000000000000E+000
  -1.84034447155838       0.953389994721718       0.000000000000000E+000
  0.196111903874838       -1.44429596067429       0.000000000000000E+000
   1.81256778356235       0.803242453283102       0.000000000000000E+000
   1.99644413471395       0.552828151132005       0.000000000000000E+000
  -1.62793192614278        1.81654020550940       0.000000000000000E+000
  -1.99569377598764       0.342859003526116       0.000000000000000E+000
  0.630108102842098        1.20635150205760       0.000000000000000E+000
  0.333151638980234       -1.24004365483665       0.000000000000000E+000
 -0.527196189530688       0.652865653465270       0.000000000000000E+000
 -0.380499584407854       0.320958066072895       0.000000000000000E+000
   1.87064225829459        1.13982303003683       0.000000000000000E+000
  0.481210279136970       0.973995065358442       0.000000000000000E+000
   1.98530956961748       -1.77574032832661       0.000000000000000E+000
  -1.24817479612170      -0.137561395963268       0.000000000000000E+000
   1.89490433211985      -0.964008091044074       0.000000000000000E+000
  -1.79916711328239       -1.89493035634953       0.000000000000000E+000
  -1.08732457192321      -0.270813845264954       0.000000000000000E+000
   1.84506274213443      -0.598262310498860       0.000000000000000E+000
 -0.836447890605197        1.19349981478729       0.000000000000000E+000
  -1.46471413930606       -1.74958686260395       0.000000000000000E+000
 -0.949589057287908      -0.440708111065124       0.000000000000000E+000
 -0.304633779618226      -0.235985629218616       0.000000000000000E+000
  -1.37643333366536       -1.99424517510121       0.000000000000000E+000
   1.95734059325982       -1.48770570373265       0.000000000000000E+000
 -0.904886501064268        1.39843865978771       0.000000000000000E+000
  -1.98572369840794        1.54214975869884       0.000000000000000E+000
  0.200716011866779       0.220692805662174       0.000000000000000E+000
 -0.226955383911479      -0.487733864845705       0.000000000000000E+000
  0.230794446602216        1.98971593627567       0.000000000000000E+000
   1.75485654195745       -1.42578691843083       0.000000000000000E+000
   1.04960356322373        1.73324847438984       0.000000000000000E+000
  -1.89943480653574       9.603842396291196E-002  0.000000000000000E+000
  -1.88414131672661      -0.346277083119819       0.000000000000000E+000
  -1.69943852717853      -0.461017327498250       0.000000000000000E+000
  0.537391308351229      -0.194959005743505       0.000000000000000E+000
  0.525662849852351      -0.421278969919436       0.000000000000000E+000
  -1.56987488892894       -1.17410717501195       0.000000000000000E+000
   1.12685719371900       -1.10765257255367       0.000000000000000E+000
   1.83098039223371       0.152255463932498       0.000000000000000E+000
  0.380497934711539      -7.835899569658955E-002  0.000000000000000E+000
  0.914564647990502        1.02855304409452       0.000000000000000E+000
  -1.80448544044310      -0.683988114024437       0.000000000000000E+000
  -1.29174992145266       0.881354042576612       0.000000000000000E+000
   1.00236174952824      -0.945639355611777       0.000000000000000E+000
   1.88563341305648      -0.146593262378813       0.000000000000000E+000
  0.131343496239652      -0.205153728599414       0.000000000000000E+000
  -1.55551652747641      -0.987492201940726       0.000000000000000E+000
   1.37544565944377        1.57167584273335       0.000000000000000E+000
  0.697190469540333      -9.778460710157777E-002  0.000000000000000E+000
  -1.90525712376311       0.567134285200646       0.000000000000000E+000
  -1.56002429601945      -0.591428927373103       0.000000000000000E+000
  -1.52678509192953       -1.35809838872156       0.000000000000000E+000
  0.111073619174471      -0.824632818686491       0.000000000000000E+000
   1.68769083454072        1.56640984853114       0.000000000000000E+000
   1.80796230293660        1.99735192268172       0.000000000000000E+000
   1.98499249009656        1.81476020117240       0.000000000000000E+000
   1.60505062423505        1.99697600442067       0.000000000000000E+000
 -0.190504047013262       0.469342648318064       0.000000000000000E+000
   1.97612019102909      -0.363967467144847       0.000000000000000E+000
  0.461254975393893       -1.52238418432619       0.000000000000000E+000
  0.565191465053868       -1.73529883223683       0.000000000000000E+000
 -0.267694622092749       -1.65645487042453       0.000000000000000E+000
  0.800028579784088        1.46475700736621       0.000000000000000E+000
  0.298781559116934       0.664651956796949       0.000000000000000E+000
  0.719800436953832       -1.95563223260137       0.000000000000000E+000
 -0.565641052580379       -1.99933120491312       0.000000000000000E+000
  -1.93922443228876       -1.41547593012267       0.000000000000000E+000
  0.401724636341244       -1.67843414584181       0.000000000000000E+000
  0.947018752775772       0.288124727442252       0.000000000000000E+000
 -0.176068884536945       -1.80511837636671       0.000000000000000E+000
 -0.240034245249601       -1.48097756269455       0.000000000000000E+000
 -0.406096323359094       -1.78898827994087       0.000000000000000E+000
  0.364877167872234       0.512718846282329       0.000000000000000E+000
 -4.629761248428554E-002  0.367140654346810       0.000000000000000E+000
 -0.988776329395398        1.11569437645454       0.000000000000000E+000
  0.923355861446586       0.467052416123584       0.000000000000000E+000
 -8.918141064739427E-002  -1.58199191561854       0.000000000000000E+000
  0.827684167567710       0.633582917763464       0.000000000000000E+000
