 variables= "x","y","f"
 zone i=         156  datapacking=point
  0.000000000000000E+000  0.000000000000000E+000   1.00000000000000     
 -0.154729761172078       0.890161665129474        76.3671730924067     
   1.27508582310340        1.31074250050781        10.0045586509740     
  -1.63257109898579       -1.98715756782224        2171.45577265506     
 -0.440642468926656      -0.702696922403973        82.5117223921291     
   1.75838847903662        1.77282533952674        174.578875012727     
  0.871530913120485       0.966390637873877        4.29414190757987     
 -0.907215621998945       0.309268978900320        30.0335566298483     
  0.427041065387753       6.554667255471092E-002   1.69291241102895     
  -1.99354108321129       -1.26616506261311        2755.11022848081     
   1.10046901900434      -0.436207332687897        271.349856295235     
  -1.14447015163019       -1.51845857038967        804.510153421773     
  -1.99197254528038       0.820831676544074        999.390182558720     
  -1.99873112587993       0.165098138566429        1475.75062017062     
  -1.98283018223640        1.46985175336911        614.925365870935     
 -7.444220895611031E-002   1.96981028900430        386.989557634480     
   1.98817549216849       0.837104827921471        971.758171031029     
   1.98275945778833       0.193833761188170        1397.85741758207     
  0.582210715377883        1.90921115128742        246.740489669313     
  -1.34380179054283       0.806484154608383        105.357272727698     
  0.605516490139551       -1.99441092289946        557.616589210681     
  3.267803351375509E-002  -1.98965422979453        397.233153227534     
   1.10841125405359       -1.95361950217459        1012.64826134971     
 -0.494093179265062       -1.97050874410909        492.693936178809     
  0.294100497273440       -1.54714359103667        267.375832208821     
   1.99669500565923       -1.27328780755699        2767.83624990145     
  0.827764926074219       -1.52907669586045        490.329478630180     
 -0.213824406528074       -1.52327017809907        247.646662733712     
   1.99014301517335      -0.768686006533543        2237.66046986214     
  -1.79559781789667        1.98634921605440        161.035773673915     
  -1.99773888344450       -1.94028635632363        3526.95553917605     
   1.96101077568865       -1.97468793322769        3388.45593969313     
  -1.63886238430917      -0.504945210114414        1025.09371076002     
  -1.61205026698096      -0.873030025874637        1212.11795386652     
  -1.64170956401235      -0.125555309277459        802.650487476966     
   1.71392608901902       -1.02316945608771        1569.23372017700     
   1.60963029482232       0.472439535290778        449.163227045108     
  -1.29030820904874      -0.659760678579995        545.648041636407     
  -1.27830486618384      -0.279832894442773        371.490549204963     
  -1.53638084839945       0.241266639697776        455.533867864170     
   1.58093126239601       0.104047584568665        574.081808314772     
   1.56519124343348       0.837907858537720        260.146686093682     
 -0.659086995177429        1.85160703906536        203.601376908612     
   1.34584502350359        1.99861887309377        3.62848873629813     
  -1.66579676375535        1.53436459380640        160.994036386615     
 -0.952254497183598        1.98292220179043        119.617644613431     
  -1.74686069002409        1.20630478151397        348.028001761565     
  -1.84590773368437       -1.64683406546239        2562.60248376153     
  -1.99851719711222      -0.554866573409490        2078.27439837126     
  -1.48107088575559        1.78996275345796        22.4456718758099     
 -0.379733780737348        1.67310357655971        235.658969717946     
  0.990366513965817        1.99751086737419        103.364938922525     
  -1.98806485516413      -0.867418127843966        2331.99501113897     
   1.75495498982106       -1.70139046131645        2286.61226376091     
   1.99722906165692        1.51373952407909        613.648247522479     
   1.63338290354500       -1.99587595530382        2175.51882951629     
   1.98991817024647        1.99429996934886        387.288881971826     
   1.73837954204555        1.41661280949828        258.260266529793     
  0.451434321340574      -0.609181507595377        66.3936706024057     
  0.209707798733654        1.09759479908980        111.635532379742     
 -0.874908191885401       0.939055366298516        6.52866502234131     
   1.22856261009684       0.299756403695384        146.367799443736     
  0.387645940669751      -0.333096098553716        23.7391956270756     
  -1.02066380487944        1.19163787709914        6.32958181007883     
   1.84641114825533        1.16063009411328        506.338422133647     
   1.49654339107024        1.57261804786921        44.7386668003083     
  0.599507092445069      -0.848094091086492        145.966706632103     
  0.187797667971373      -0.707855704612921        55.8829513276170     
  -1.24796566399169        1.38048080270771        8.18403736828882     
  0.360286905914479       0.854367475637492        52.9080711848474     
   1.83314317721405      -5.572831230085851E-002   1167.69689459965     
   1.29497482668271       0.583068458782642        119.746837168501     
  -1.98041438465838        1.80170385694560        458.465887158806     
  0.557336954960626        1.65183587000084        180.080749472150     
  0.348392169789367        1.97874043416883        345.404446800919     
  0.777613194117418        1.75950413084112        133.410806686701     
  -1.77842686785635       0.606742625981204        661.063671761423     
  -1.27175245105285       -1.99152887645863        1307.56463499215     
   1.41400957160534       -1.14008163364396        985.820381461248     
  -1.90219038745539       0.378074686024258        1058.34703797455     
  0.863201641238547        1.39036879037767        41.6536916124583     
  0.328372918933948        1.73025651534979        263.678260562112     
 -0.428150856813985        1.96536211420099        319.609463744428     
   1.67049589634661        1.99768114878974        63.3147032998503     
   1.99607748462313      -0.261922337585346        1804.05409123330     
   1.44519273866044       -1.37957070216435        1203.00654911092     
   1.20551508498956      -0.958547778698221        581.727105893234     
 -0.829238168355418       -1.27024944725390        386.677631182984     
  2.546828189132100E-002   1.44108734766753        208.436081030712     
   1.88312225455285       0.547041425297986        900.244784659368     
   1.99382248267151       -1.62733071985943        3139.96625979304     
 -0.422299889312888       4.924641541349351E-002   3.68937995164501     
 -0.574778230029350      -0.132882776074772        23.9402411986373     
 -0.458915467118381       0.261231053371893        2.38475020843866     
 -0.528991506378865        1.45631698733180        140.749504316254     
  -1.21171701845900        1.99617692800964        32.7615176008547     
  -1.88127274584602       -1.04884696375217        2113.30743026703     
 -0.727761477808965      -0.280998274353208        68.6980770077689     
  -1.88772986920211      -0.299611479391514        1500.72060265595     
  -1.77047095178627        1.76072948574130        196.418568319945     
   1.78123713415716       -1.35014583152326        2046.31941253001     
  9.587960921063532E-002  0.513502509455008        26.2502519541324     
  -1.43089103220178        1.99951517037710        6.13899781268081     
 -0.711188797954946        1.07052955313652        34.8212991482040     
  -1.81818964612365      -0.689649950048349        1604.31508228474     
 -0.841934215833626       -1.67442047166000        571.392072398508     
 -0.632498305456762       7.151681180554936E-002   13.4587261116362     
   1.64958241539319      -0.445744728267960        1003.32653672507     
 -0.727071716707213        1.55614930600504        108.561694830455     
   1.98604291276779        1.73330935616573        489.849628444575     
  -1.99267813389560       0.585276730688848        1155.10998006134     
  -1.28611987617411        1.10325652688108        35.5696749572430     
   1.87240722960317      -0.456274991270265        1570.65116047778     
   1.84531346871921      -0.654826365753289        1649.08118370199     
  0.621370204961877       0.577088365633028        3.79098051699393     
  0.786894292552910       0.481469077064892        1.94246713828916     
  0.608658155415643        1.05322193130119        46.7688852801320     
   1.38955437318534      -0.385409502565797        536.662821651618     
  -1.87347198662183       0.973321393993003        651.678566167556     
 -0.151378532950226       0.394835943004070        15.1581570762212     
   1.76149496722297       0.791384836763258        534.873706979552     
  -1.80944474331036        1.39055249165451        362.664439436769     
  -1.80791923570179       -1.89914499367438        2678.41426467874     
   1.98673274847622       0.392927961374961        1264.19251523486     
  0.825619206791949       0.167198565559546        26.4961355088799     
  0.434483952631466       0.591220611745794        16.5159503954546     
  -1.23843950651737       0.364889183542609        141.630060532467     
   1.51453454435779      -0.696257096712534        894.317792009314     
  0.124559885536838       0.839181421931691        68.6090056608034     
  0.809841243926353      -0.271438560738579        86.0212400356216     
 -0.754405273467946      -0.836239722817133        200.583589421768     
  -1.69503284378087       -1.39283019528326        1827.11025132098     
  -1.98136404197478        1.97474765298210        389.550410425998     
  -1.62540227472418       -1.80191464277424        1981.67052853502     
 -0.963017541664120        1.79898845697548        79.8195961318125     
 -0.701788037670523       0.740682119246018        9.05519881479060     
 -0.285528856371108       0.777374752672292        50.0730318095639     
   1.88784109868768       -1.81344565697364        2892.42022905225     
  -1.99822173779878       -1.73201917531013        3286.44796999822     
  -1.61919718320408       -1.62374748438043        1809.32712890819     
  -1.17753475485044       -1.07345193743568        609.921355636524     
  -1.45602647843033       -1.84576625310929        1578.77265848941     
  -1.99623774340294        1.21188328374030        777.975732214685     
 -0.892481798613273       -1.99275112805145        781.586927947040     
 -0.757779280603165        1.98828894389579        203.046216589223     
 -0.161556198562825      -0.404815927987025        19.9181014312622     
   1.85339358261366        1.60939113323948        334.037799565274     
  -1.32710250006434       -1.15057921492878        853.261834651164     
 -0.271915093421094       0.586828667704543        27.9234703728391     
 -0.495538412604245       -1.22802033920390        219.380041148224     
  0.901604447292420        1.59777924025032        61.6147026814702     
   1.94595387407228        1.35359883243324        592.910709940774     
  -1.62224392653125       0.763289103256680        355.962882590531     
 -0.951536580849895        1.58844556048600        50.4606319275254     
   1.08311140531264      -0.107609558318981        164.036370154291     
 -0.538698639632028       0.781978475394749        26.5525717487156     
