 variables= "x","y","fpcb"
 zone i=          56  datapacking=point
  0.000000000000000E+000  0.000000000000000E+000  0.000000000000000E+000
  0.989855562526326        1.83725045440806       0.000000000000000E+000
  -1.17028788564008       -1.98615816912296       0.000000000000000E+000
 -0.883039381005629        1.54874247172695       0.000000000000000E+000
  -1.46105835666833        1.71472236619309       0.000000000000000E+000
   1.88310859279024      -0.370282296756374       0.000000000000000E+000
  -1.06660822187162       0.301802078349215       0.000000000000000E+000
  -1.32074857891618       -1.64883277918349       0.000000000000000E+000
   1.37863417770390        1.44929849838599       0.000000000000000E+000
  8.644288072567541E-002   1.26895330998168       0.000000000000000E+000
  0.772769128128593        1.04373546875183       0.000000000000000E+000
  0.439827374453083       -1.86524936032715       0.000000000000000E+000
 -3.949934989727288E-002  0.572182854851737       0.000000000000000E+000
  0.352608156451748       0.749968789576130       0.000000000000000E+000
 -0.332896311180900       -1.31091717795144       0.000000000000000E+000
   1.81169804213956       0.505899291770175       0.000000000000000E+000
  -1.77282391579620       0.394851356196941       0.000000000000000E+000
  -1.81518914233962        1.86674366194242       0.000000000000000E+000
 -0.974824357910411      -0.766546450120103       0.000000000000000E+000
  0.854289333191058       -1.45527801573160       0.000000000000000E+000
   1.53173204892392      -0.312155823945176       0.000000000000000E+000
   1.05690993687066      -0.439296669533051       0.000000000000000E+000
   1.23076353277588       -1.73185208505497       0.000000000000000E+000
  0.715422664220322        1.63473379824875       0.000000000000000E+000
 -0.691282427314936       0.934583593509102       0.000000000000000E+000
   1.68897145477348        1.14645613009394       0.000000000000000E+000
  -1.96585048449255      -0.675457857746009       0.000000000000000E+000
 -0.994547381464342      -0.492942396191027       0.000000000000000E+000
 -0.157840217978699       0.644419991269704       0.000000000000000E+000
  -1.54781627400379       -1.81502488863462       0.000000000000000E+000
  0.179155559595816        1.27669675299554       0.000000000000000E+000
 -0.641600720056040       -1.61221785503713       0.000000000000000E+000
  0.253061698237216        1.41814677606544       0.000000000000000E+000
   1.42614415427152      -0.916225512738944       0.000000000000000E+000
   1.56843721213187       0.197807454764671       0.000000000000000E+000
  0.578769759102510      -0.904653210529749       0.000000000000000E+000
  -1.41665873456345       -1.08832755137998       0.000000000000000E+000
 -0.256079079249097      -0.757519645072026       0.000000000000000E+000
   1.16982421450042        1.67641618896913       0.000000000000000E+000
  0.290118600815321      -0.182202869319037       0.000000000000000E+000
   1.33241484374240      -0.101806399053850       0.000000000000000E+000
  -1.88553935030276       -1.38742161886343       0.000000000000000E+000
 -0.223496865129656       0.150306335040875       0.000000000000000E+000
  -1.62090311567931       8.948215946038962E-002  0.000000000000000E+000
   1.99042570068653      -0.582436811198030       0.000000000000000E+000
  -1.67888486909026       0.439059680953493       0.000000000000000E+000
 -0.581631136772118       -1.52394217999537       0.000000000000000E+000
  -1.21997024201388       0.849235398463123       0.000000000000000E+000
 -0.767130207715927       -1.15520347341400       0.000000000000000E+000
   1.75168988892705        1.94976782515219       0.000000000000000E+000
  0.942872325581984       0.802382807381870       0.000000000000000E+000
 -0.490278459080489       -1.04306538944421       0.000000000000000E+000
  3.539282862011728E-002  -1.20000037859493       0.000000000000000E+000
 -0.425456590761641      -0.115453889599948       0.000000000000000E+000
  0.623806383767879        1.09375027981935       0.000000000000000E+000
  0.532073809908314      -2.995613223862525E-002  0.000000000000000E+000
