 variables= "x","y","fpcb"
 zone i=         132  datapacking=point
  -2.00000000000000       -2.00000000000000       0.000000000000000E+000
  0.000000000000000E+000  0.000000000000000E+000  0.000000000000000E+000
  -1.00000000000000        1.00000000000000       0.000000000000000E+000
   1.00000000000000       -1.00000000000000       0.000000000000000E+000
  -1.50000000000000       0.500000000000000       0.000000000000000E+000
  0.500000000000000       -1.50000000000000       0.000000000000000E+000
 -0.500000000000000      -0.500000000000000       0.000000000000000E+000
   1.50000000000000        1.50000000000000       0.000000000000000E+000
  -1.75000000000000        1.75000000000000       0.000000000000000E+000
  0.250000000000000      -0.250000000000000       0.000000000000000E+000
 -0.750000000000000       -1.25000000000000       0.000000000000000E+000
   1.25000000000000       0.750000000000000       0.000000000000000E+000
  -1.25000000000000      -0.750000000000000       0.000000000000000E+000
  0.750000000000000        1.25000000000000       0.000000000000000E+000
 -0.250000000000000       0.250000000000000       0.000000000000000E+000
   1.75000000000000       -1.75000000000000       0.000000000000000E+000
  -1.87500000000000       0.125000000000000       0.000000000000000E+000
  0.125000000000000       -1.87500000000000       0.000000000000000E+000
 -0.875000000000000      -0.875000000000000       0.000000000000000E+000
   1.12500000000000        1.12500000000000       0.000000000000000E+000
  -1.37500000000000       -1.37500000000000       0.000000000000000E+000
  0.625000000000000       0.625000000000000       0.000000000000000E+000
 -0.375000000000000        1.62500000000000       0.000000000000000E+000
   1.62500000000000      -0.375000000000000       0.000000000000000E+000
  -1.62500000000000      -0.125000000000000       0.000000000000000E+000
  0.375000000000000        1.87500000000000       0.000000000000000E+000
 -0.625000000000000       0.875000000000000       0.000000000000000E+000
   1.37500000000000       -1.12500000000000       0.000000000000000E+000
  -1.12500000000000        1.37500000000000       0.000000000000000E+000
  0.875000000000000      -0.625000000000000       0.000000000000000E+000
 -0.125000000000000       -1.62500000000000       0.000000000000000E+000
   1.87500000000000       0.375000000000000       0.000000000000000E+000
  -1.93750000000000        1.18750000000000       0.000000000000000E+000
  6.250000000000000E-002 -0.812500000000000       0.000000000000000E+000
 -0.937500000000000       -1.81250000000000       0.000000000000000E+000
   1.06250000000000       0.187500000000000       0.000000000000000E+000
  -1.43750000000000      -0.312500000000000       0.000000000000000E+000
  0.562500000000000        1.68750000000000       0.000000000000000E+000
 -0.437500000000000       0.687500000000000       0.000000000000000E+000
   1.56250000000000       -1.31250000000000       0.000000000000000E+000
  -1.68750000000000       -1.06250000000000       0.000000000000000E+000
  0.312500000000000       0.937500000000000       0.000000000000000E+000
 -0.687500000000000        1.93750000000000       0.000000000000000E+000
   1.31250000000000      -6.250000000000000E-002  0.000000000000000E+000
  -1.18750000000000       0.437500000000000       0.000000000000000E+000
  0.812500000000000       -1.56250000000000       0.000000000000000E+000
 -0.187500000000000      -0.562500000000000       0.000000000000000E+000
   1.81250000000000        1.43750000000000       0.000000000000000E+000
  -1.81250000000000      -0.937500000000000       0.000000000000000E+000
  0.187500000000000        1.06250000000000       0.000000000000000E+000
 -0.812500000000000       6.250000000000000E-002  0.000000000000000E+000
   1.18750000000000       -1.93750000000000       0.000000000000000E+000
  -1.31250000000000        1.56250000000000       0.000000000000000E+000
  0.687500000000000      -0.437500000000000       0.000000000000000E+000
 -0.312500000000000       -1.43750000000000       0.000000000000000E+000
   1.68750000000000       0.562500000000000       0.000000000000000E+000
  -1.56250000000000       0.812500000000000       0.000000000000000E+000
  0.437500000000000       -1.18750000000000       0.000000000000000E+000
 -0.562500000000000      -0.187500000000000       0.000000000000000E+000
   1.43750000000000        1.81250000000000       0.000000000000000E+000
  -1.06250000000000       -1.68750000000000       0.000000000000000E+000
  0.937500000000000       0.312500000000000       0.000000000000000E+000
 -6.250000000000000E-002   1.31250000000000       0.000000000000000E+000
   1.93750000000000      -0.687500000000000       0.000000000000000E+000
  -1.96875000000000       0.656250000000000       0.000000000000000E+000
  3.125000000000000E-002  -1.34375000000000       0.000000000000000E+000
 -0.968750000000000      -0.343750000000000       0.000000000000000E+000
   1.03125000000000        1.65625000000000       0.000000000000000E+000
  -1.46875000000000       -1.84375000000000       0.000000000000000E+000
  0.531250000000000       0.156250000000000       0.000000000000000E+000
 -0.468750000000000        1.15625000000000       0.000000000000000E+000
   1.53125000000000      -0.843750000000000       0.000000000000000E+000
  -1.71875000000000      -0.593750000000000       0.000000000000000E+000
  0.281250000000000        1.40625000000000       0.000000000000000E+000
 -0.718750000000000       0.406250000000000       0.000000000000000E+000
   1.28125000000000       -1.59375000000000       0.000000000000000E+000
  -1.21875000000000        1.90625000000000       0.000000000000000E+000
  0.781250000000000      -9.375000000000000E-002  0.000000000000000E+000
 -0.218750000000000       -1.09375000000000       0.000000000000000E+000
   1.78125000000000       0.906250000000000       0.000000000000000E+000
  -1.84375000000000       -1.46875000000000       0.000000000000000E+000
  0.156250000000000       0.531250000000000       0.000000000000000E+000
 -0.843750000000000        1.53125000000000       0.000000000000000E+000
   1.15625000000000      -0.468750000000000       0.000000000000000E+000
  -1.34375000000000       3.125000000000000E-002  0.000000000000000E+000
  0.656250000000000       -1.96875000000000       0.000000000000000E+000
 -0.343750000000000      -0.968750000000000       0.000000000000000E+000
   1.65625000000000        1.03125000000000       0.000000000000000E+000
  -1.59375000000000        1.28125000000000       0.000000000000000E+000
  0.406250000000000      -0.718750000000000       0.000000000000000E+000
 -0.593750000000000       -1.71875000000000       0.000000000000000E+000
   1.40625000000000       0.281250000000000       0.000000000000000E+000
  -1.09375000000000      -0.218750000000000       0.000000000000000E+000
  0.906250000000000        1.78125000000000       0.000000000000000E+000
 -9.375000000000000E-002  0.781250000000000       0.000000000000000E+000
   1.90625000000000       -1.21875000000000       0.000000000000000E+000
  -1.90625000000000      -0.406250000000000       0.000000000000000E+000
  9.375000000000000E-002   1.59375000000000       0.000000000000000E+000
 -0.906250000000000       0.593750000000000       0.000000000000000E+000
   1.09375000000000       -1.40625000000000       0.000000000000000E+000
  -1.40625000000000        1.09375000000000       0.000000000000000E+000
  0.593750000000000      -0.906250000000000       0.000000000000000E+000
 -0.406250000000000       -1.90625000000000       0.000000000000000E+000
   1.59375000000000       9.375000000000000E-002  0.000000000000000E+000
  -1.65625000000000       0.343750000000000       0.000000000000000E+000
  0.343750000000000       -1.65625000000000       0.000000000000000E+000
 -0.656250000000000      -0.656250000000000       0.000000000000000E+000
   1.34375000000000        1.34375000000000       0.000000000000000E+000
  -1.15625000000000       -1.15625000000000       0.000000000000000E+000
  0.843750000000000       0.843750000000000       0.000000000000000E+000
 -0.156250000000000        1.84375000000000       0.000000000000000E+000
   1.84375000000000      -0.156250000000000       0.000000000000000E+000
  -1.78125000000000        1.71875000000000       0.000000000000000E+000
  0.218750000000000      -0.281250000000000       0.000000000000000E+000
 -0.781250000000000       -1.28125000000000       0.000000000000000E+000
   1.21875000000000       0.718750000000000       0.000000000000000E+000
  -1.28125000000000      -0.781250000000000       0.000000000000000E+000
  0.718750000000000        1.21875000000000       0.000000000000000E+000
 -0.281250000000000       0.218750000000000       0.000000000000000E+000
   1.71875000000000       -1.78125000000000       0.000000000000000E+000
  -1.53125000000000       -1.53125000000000       0.000000000000000E+000
  0.468750000000000       0.468750000000000       0.000000000000000E+000
 -0.531250000000000        1.46875000000000       0.000000000000000E+000
   1.46875000000000      -0.531250000000000       0.000000000000000E+000
  -1.03125000000000       0.968750000000000       0.000000000000000E+000
  0.968750000000000       -1.03125000000000       0.000000000000000E+000
 -3.125000000000000E-002 -3.125000000000000E-002  0.000000000000000E+000
   1.96875000000000        1.96875000000000       0.000000000000000E+000
  -1.98437500000000        1.98437500000000       0.000000000000000E+000
  1.562500000000000E-002 -1.562500000000000E-002  0.000000000000000E+000
 -0.984375000000000       -1.01562500000000       0.000000000000000E+000
   1.01562500000000       0.984375000000000       0.000000000000000E+000
