 variables= "x","y","fpcb"
 zone i=         156  datapacking=point
  0.000000000000000E+000  0.000000000000000E+000  0.000000000000000E+000
  0.334700696910777        1.66194361212280       0.000000000000000E+000
 -0.503568703122077      -7.734739301984828E-002  0.000000000000000E+000
  0.884443028038630      -0.341270755553473       0.000000000000000E+000
   1.56124527324050        1.35332068482524       0.000000000000000E+000
 -0.150692390942456      -0.557431888875392       0.000000000000000E+000
   1.13116727592279       -1.84866510765644       0.000000000000000E+000
  -1.19886609587139        1.12189938881839       0.000000000000000E+000
  -1.34247324501984       -1.32788103145765       0.000000000000000E+000
 -0.766010605925039      -0.969222707717929       0.000000000000000E+000
  -1.97661729156006       0.819406199466771       0.000000000000000E+000
   1.90227167996635       0.487267408307433       0.000000000000000E+000
  -1.99097438011290       -1.96999200476333       0.000000000000000E+000
   1.96106292662557        1.95622772317762       0.000000000000000E+000
  -1.99163011787276        1.96392507164548       0.000000000000000E+000
   1.97435883058175       -1.97338773013326       0.000000000000000E+000
  -1.45284453763053        1.99382569662621       0.000000000000000E+000
  -1.40487365465244       -1.99743806227420       0.000000000000000E+000
   1.42554755002237        1.94665881208900       0.000000000000000E+000
  -1.97389164379700       -1.42589123998094       0.000000000000000E+000
  0.166387468064550       0.466996414292312       0.000000000000000E+000
  0.510316982926932       0.110859981637845       0.000000000000000E+000
 -0.330580913576952       0.480901126790275       0.000000000000000E+000
  0.832940872899129       -1.41079276715554       0.000000000000000E+000
 -4.179761833577422E-002  0.914821719000498       0.000000000000000E+000
   1.08054885459437      -0.953452552097789       0.000000000000000E+000
 -0.699902939316218       -1.47859825538742       0.000000000000000E+000
  -1.26397227725851      -0.841369605728330       0.000000000000000E+000
  0.612155317309190       0.702886832052505       0.000000000000000E+000
   1.35843089918831      -0.473286478247550       0.000000000000000E+000
   1.99601062684693       -1.23617051688926       0.000000000000000E+000
   1.98786142467979      -0.826720337271285       0.000000000000000E+000
   1.79960921604000       -1.56776342524169       0.000000000000000E+000
   1.62100639437949       -1.22264368963608       0.000000000000000E+000
  0.268862258742776       -1.99773197865047       0.000000000000000E+000
  0.711120084468035       -1.99201519430823       0.000000000000000E+000
  -1.98791218832672      -0.181039584952527       0.000000000000000E+000
   1.39283905867638       -1.51973460757535       0.000000000000000E+000
  -1.55092989533272      -0.263367396147267       0.000000000000000E+000
  -1.74395991593281        1.50664021138969       0.000000000000000E+000
 -0.200199146216466       -1.98426930731474       0.000000000000000E+000
   1.99014490811626      -0.441699103602643       0.000000000000000E+000
  0.198948564749272      -0.283828931413520       0.000000000000000E+000
 -0.214488102703785      -0.239628471394288       0.000000000000000E+000
  -1.27598245950620       0.486600739205898       0.000000000000000E+000
  0.968162874966741       0.708835945617981       0.000000000000000E+000
   1.99988456305054        1.48018716024429       0.000000000000000E+000
  -1.10158946085199       0.796050618162213       0.000000000000000E+000
  -1.30108198377727       0.167207306473332       0.000000000000000E+000
 -0.805810540782955       0.984299822576281       0.000000000000000E+000
   1.19801937469748       0.484292156237298       0.000000000000000E+000
 -0.323144453099161        1.08757360829521       0.000000000000000E+000
  -1.57306314719984       0.343697787743102       0.000000000000000E+000
 -0.998601973319345       0.319695059759768       0.000000000000000E+000
  0.157491034147822        1.16701528440536       0.000000000000000E+000
  -1.41918562589641       0.769774798177627       0.000000000000000E+000
 -7.855708317709365E-002 -0.960509202765740       0.000000000000000E+000
 -0.319645930015336      -0.837710685421593       0.000000000000000E+000
  0.196465529814017      -0.863092103805721       0.000000000000000E+000
  -1.81106999032343       -1.76569985650076       0.000000000000000E+000
  0.764299709607784        1.98895449303507       0.000000000000000E+000
  0.930115003968637        1.43402206992713       0.000000000000000E+000
  0.217201743223892       -1.43685551819135       0.000000000000000E+000
   1.15443000747805        1.26777802896172       0.000000000000000E+000
 -0.262205342446932       -1.16831912204937       0.000000000000000E+000
   1.71608094960361        1.80668995168184       0.000000000000000E+000
  0.755303837922817        1.64968975010090       0.000000000000000E+000
  0.352906538054577       -1.08202731550246       0.000000000000000E+000
  5.517107491638917E-002  -1.19256730932472       0.000000000000000E+000
  0.544403968879582      -0.814770054168614       0.000000000000000E+000
  0.657586878915663        1.35737520008038       0.000000000000000E+000
  1.488840958703230E-002  -1.63584898758953       0.000000000000000E+000
 -0.564095797689692        1.99886866350829       0.000000000000000E+000
 -0.799339396956083        1.92284026110342       0.000000000000000E+000
 -0.330956560374882        1.92252323210077       0.000000000000000E+000
 -0.527449110528764        1.76600806661044       0.000000000000000E+000
 -0.785219485887914        1.68178108197570       0.000000000000000E+000
 -7.669261847841780E-002   1.94097632346179       0.000000000000000E+000
 -0.299687374376935        1.67862939078557       0.000000000000000E+000
  -1.03811971457459        1.98133332409492       0.000000000000000E+000
 -0.524967971115277        1.50771121937116       0.000000000000000E+000
  -1.02551738614995        1.73393231172631       0.000000000000000E+000
 -0.753486437195306      -0.405503355579225       0.000000000000000E+000
 -0.748113513911770        1.44466408581745       0.000000000000000E+000
 -9.110777409524262E-003  0.238831618937677       0.000000000000000E+000
  -1.72812811196659       -1.01505800228374       0.000000000000000E+000
 -0.978011888064843        1.46159373418761       0.000000000000000E+000
 -0.987612141673852       8.505028090878497E-002  0.000000000000000E+000
  -1.80638859017752      -0.783537042017255       0.000000000000000E+000
 -0.658019324049383      -0.664603759018623       0.000000000000000E+000
   1.70792639740924       -1.98813144742686       0.000000000000000E+000
  -1.98418215406640        1.64170562604987       0.000000000000000E+000
   1.46795438897736       -1.99636964862550       0.000000000000000E+000
  -1.81249715130875        1.78556238942050       0.000000000000000E+000
  -1.96972368368979        1.43740127715663       0.000000000000000E+000
  -1.24652579018686       -1.73658984938590       0.000000000000000E+000
   1.71456285050257       -1.77401137571077       0.000000000000000E+000
  -1.43222974790868       -1.62388336274209       0.000000000000000E+000
  -1.04568372857986       -1.73328125275155       0.000000000000000E+000
   1.27457681922901        1.71604678357711       0.000000000000000E+000
  -1.63238845792952        1.15405638722966       0.000000000000000E+000
   1.08351871114219        1.76792098448178       0.000000000000000E+000
  -1.73688827119010       -1.97618749483089       0.000000000000000E+000
  -1.48511916744184        1.29553896365440       0.000000000000000E+000
  -1.15114058581123       -1.91127421450490       0.000000000000000E+000
  -1.68542646245204       0.944814354463673       0.000000000000000E+000
   1.47338303670351        1.65354666751712       0.000000000000000E+000
   1.91661262348210       -1.73782651881755       0.000000000000000E+000
  -1.54606017553252       -1.46119126665219       0.000000000000000E+000
  -1.22811441542755       -1.49149220426209       0.000000000000000E+000
  0.824153795800608      -9.215606867623682E-002  0.000000000000000E+000
  0.992112422370212      -0.175530442733103       0.000000000000000E+000
  0.630192599386056      -9.939311483195823E-002  0.000000000000000E+000
  0.987407556656834       2.939414265890239E-002  0.000000000000000E+000
  0.168744565778927      -7.531230069740880E-002  0.000000000000000E+000
  0.694740210571094      -0.290083331268336       0.000000000000000E+000
   1.48711934136910       0.726917510717783       0.000000000000000E+000
  0.806461617602247       9.123046107777721E-002  0.000000000000000E+000
   1.92076182729580        1.76152217412176       0.000000000000000E+000
   1.27392689908514       0.844304774281322       0.000000000000000E+000
 -1.431759164832846E-002 -0.223084264791709       0.000000000000000E+000
  0.147093888715031       0.128522066745585       0.000000000000000E+000
   1.16417333270691      -5.220339612058633E-002  0.000000000000000E+000
   1.10985106984648       0.955777592004536       0.000000000000000E+000
  0.646860547620828       0.418092327974961       0.000000000000000E+000
  -1.39460901467606        1.62942428063778       0.000000000000000E+000
   1.61034498158205       0.585134936893870       0.000000000000000E+000
 -0.710283890713145       0.291282975593243       0.000000000000000E+000
  0.948141579642392       0.214443855607155       0.000000000000000E+000
   1.44014914112060       0.932100398346265       0.000000000000000E+000
  -1.08650112878705      -0.919041940204361       0.000000000000000E+000
 -0.195314387923175       4.137258289016454E-002  0.000000000000000E+000
  -1.77424550692600        1.99214875774203       0.000000000000000E+000
   1.82703996623932        1.38875817537844       0.000000000000000E+000
   1.79265827560324        1.21050123323262       0.000000000000000E+000
   1.98175982082344       0.664911246596695       0.000000000000000E+000
   1.80508291676354        1.57013901887635       0.000000000000000E+000
   1.99269846350228       0.164735869390284       0.000000000000000E+000
  -1.96132147043876       -1.69343833978188       0.000000000000000E+000
   1.99011782638883       0.875917922751923       0.000000000000000E+000
  0.803917943815459      -0.955313974663125       0.000000000000000E+000
 -4.672618570399201E-002  0.683173095237431       0.000000000000000E+000
  4.538879758742054E-002 -0.641929138295137       0.000000000000000E+000
  0.727474851391205        1.01706750179503       0.000000000000000E+000
  0.845852824424125      -0.773295655063600       0.000000000000000E+000
   1.86638008010776        1.03742268718080       0.000000000000000E+000
 -0.930383242092088      -0.702570921029242       0.000000000000000E+000
   1.83688782362960      -0.324008857638972       0.000000000000000E+000
  -1.54494949879990        1.73334378730903       0.000000000000000E+000
  -1.71649440541553       -1.54546202800715       0.000000000000000E+000
   1.63522671202851        1.50790416765803       0.000000000000000E+000
  0.642537513678950       -1.01685536171109       0.000000000000000E+000
   1.39811229582769       -1.18439402296394       0.000000000000000E+000
 -0.645286548234579       0.776916566466402       0.000000000000000E+000
  0.860172072268535       0.912337839464238       0.000000000000000E+000
  0.118147481632480       0.656319757571949       0.000000000000000E+000
