 variables= "x","y","f"
 zone i=          42  datapacking=point
  0.000000000000000E+000  0.000000000000000E+000   1.00000000000000     
   1.81327149031531       -1.21147288717906        1.82539901800006     
   1.80027920020630        1.50689250570783        27.3077817104993     
 -0.756262538061296       0.781367903595805        1.02542315909181     
 -0.358135668027731       -1.98866861149564       9.567442290420444E-002
 -6.422125081344010E-002   1.81250026131863        5.74470758237191     
  0.145632773314317        1.22847735486931        3.95155877710583     
 -0.935344674019858        1.75061061357732        2.25977655642411     
   1.90596626626428        1.53697267625504        31.2787496646145     
 -0.863987283391782      -0.685596013150061       0.212336436721540     
   1.01450857787220       -1.44633931364053       0.649319273912054     
 -0.568965770549874       0.253204482497808       0.729233506142927     
   1.29473345048379       -1.66055533401555       0.693626336480928     
   1.46315112821035        1.09528173000367        12.9155609321502     
  0.351743581731755       -1.84386620450073       0.224894781761590     
 -0.635865727717964      -0.103201430818290       0.477559194819569     
 -0.458700304955070       0.517942519164177        1.06103220669528     
  -1.66870823759900      -0.305933996202610       0.138810965231671     
   1.14260192743288        1.19171609814184        10.3224179033844     
  -1.55769830026854      -0.876318956091135       8.768387549103378E-002
  0.740277188901761       0.390231850372728        3.09723271200644     
   1.35090900145778      -7.437083762242169E-003   3.83232595453534     
  -1.02851003009330       -1.09262773093534       0.119895138863358     
  -1.87539276833915       0.595970098271771       0.278197866054335     
  -1.48235501306853      -0.506168049770319       0.136897465162380     
  -1.94070461630735       -1.02007099935925       5.177874119131479E-002
  0.236050360259817        1.91061621200540        8.55628903550345     
  -1.77476576537286       -1.34649554968883       4.410150742848605E-002
   1.65812286845611       0.181003757335201        6.29104142765110     
  -1.19724249820691      -0.211313851164237       0.244495995292984     
  0.481918022054262        1.32615229206126        6.09866755745719     
  0.669367435743537       -1.60232975742496       0.393386644826117     
  0.302395011890388       -1.77086718101922       0.230277040931536     
  -1.25679120391662       -1.30617477444527       7.707579594592133E-002
  -1.32878856348282        1.65715127381204        1.38869257409384     
 -0.266459550314122       0.131702903465237       0.873928559081480     
  0.833850132212481      -0.810764800840391        1.02335386001059     
 -1.741326662620613E-002  0.988187413915157        2.63998740757515     
  0.603520524102391       0.660987677699724        3.54135067789208     
 -0.240307449293542       0.829655220641392        1.80281218609211     
   1.54294362906273      -0.374950582225952        3.21553273474120     
   1.03406148949447      -0.623703707414116        1.50735699396860     
