 variables= "x","y","f"
 zone i=          42  datapacking=point
   150.726662903891        40.0962643898490        18.6148064733858     
   150.148425794216        39.4156002769764        19.0091892392467     
   149.717323412982        40.2438551776485        18.6715722979855     
   149.429602073994        39.3489708445094        19.1329750180549     
   150.322057660990        39.9029837577952        18.7553183040562     
   149.823108320795        40.6980172889609        18.4501740543849     
   149.981547665011        40.3265756299686        18.6004455203118     
   150.121605940388        39.6316129504148        18.9089569422737     
   150.581040208436        40.3938576277656        18.4955350392520     
   149.542783255998        39.8151498733474        18.8946437639024     
   150.433183588752        39.5989214071714        18.8853709243532     
   149.266576204223        40.5720904172929        18.5764433056552     
   150.670089256902        39.2874520065930        19.0051636421986     
   149.275311184723        39.6979061502621        18.9844026535136     
   150.749010815810        39.5043481057173        18.8909218697061     
   150.712997198775        40.6755545029745        18.3513633301663     
   149.298491643083        39.9234571660034        18.8742177193483     
   149.990673059106        39.2769355136805        19.0963634966666     
   149.681417491174        39.6167664708594        18.9716720938900     
   150.295431895251        39.2638841307931        19.0639759847751     
   150.473345974987        40.7422496258668        18.3505015565846     
   149.264236427119        39.2575459869184        19.1987790576211     
   149.344755613930        40.7465936154021        18.4872041903313     
   150.215372584113        40.7370413365154        18.3843660823156     
   149.636815462034        40.7394164956898        18.4543715840346     
   150.328696481742        40.4924578280646        18.4814691731893     
   150.660455574664        39.9216680905565        18.7044338113661     
   150.136912621561        40.4878407732340        18.5071875122886     
   149.917534419540        40.5094436027739        18.5243856240312     
   150.488879058300        40.0141254500118        18.6824911747562     
   149.256096643063        40.1084977679157        18.7924778307876     
   149.306507830965        40.2765283459652        18.7077585207819     
   149.580472874014        39.4992743134064        19.0409452306346     
   149.410191990651        40.0825393577444        18.7852539701785     
   149.846994273800        39.6371169911194        18.9409792330361     
   149.791047392306        39.4926633113868        19.0173606302512     
   149.363476269925        39.4860567915514        19.0749910935948     
   150.488472135305        40.5084969009649        18.4545372995613     
   149.495808359686        39.6416372514418        18.9833092827884     
   149.963992021223        39.5014621515124        18.9911978510064     
   149.422460832662        40.3743791064290        18.6479364848966     
   150.027921433994        39.7668467597089        18.8564213638337     
