 variables= "x","y","f"
 zone i=          46  datapacking=point
  0.000000000000000E+000  0.000000000000000E+000   1.00000000000000     
  0.666587759910300      -0.659516821993266        121.960984648743     
  -1.98563692137795        1.96274246014387        400.958591104165     
   1.97378152116784       -1.98030583162352        3453.82608252920     
  -1.99729737173402       -1.98797982799097        3581.64782515797     
 -0.422715363389401        1.99919692140921        333.449290915805     
 -0.289884182821646       -1.99260720198347        432.907187373646     
   1.99740544910227      -0.133642964808520        1701.13159805594     
   1.46027890678597        1.99439551664471        2.11678025129140     
   1.98958373460045       0.837294746458983        975.136190806057     
  -1.99866918716376       0.166886910530406        1474.19087723062     
  -1.61795317045616       -1.07133199463649        1367.80284784465     
   1.09766934607665        1.06612528788360        1.93477062765352     
  -1.39638383362408       0.620499461957448        182.469993683664     
   1.34332235009347       -1.98588807276076        1436.83336731592     
   1.98549460823710        1.84545844271154        440.599035236849     
  0.891698855857558        1.99818413456452        144.746412243438     
 -0.876243033567114      -0.983543437351305        310.241320831029     
   1.61532298967285       -1.11362085390920        1386.36903300476     
  -1.99018723278438      -0.743092655222893        2221.64437452964     
  -1.99247524149373       -1.36952814381105        2859.96569605549     
   1.52506020689097       2.205716362116927E-002   531.002772244076     
   1.99888453726150       -1.39294462552294        2904.57377243317     
   1.99943852194387      -0.856335966253147        2357.21820867888     
 -0.579233075401433       0.975316072432595        43.4290358539682     
  -1.53624987730210       -1.99700508931751        1904.83739429843     
  -1.55147862075834        1.97734201150196        24.9780250394192     
 -0.977861101352995        1.41243781848003        24.7261038471864     
  -1.84696977532369        1.40057318103265        412.406405654305     
  0.237143272128264        1.29534602526529        154.121085008552     
  -1.68727967496742      -0.164251170676173        913.932258596421     
  -1.99987206905211       0.998872022369790        909.369032532562     
 -0.854146242068073      -0.109659436330083        73.8677584928175     
  0.756707049060864       0.180546637313096        15.4302111967105     
  0.587106450540004       -1.59765771648462        377.443494023945     
   1.70318837784878       0.653370899642371        505.610996918901     
 -9.092454904678160E-002 -0.648275722244662        44.2949869135235     
  0.135050813183118        1.68245264544266        277.708935346745     
 -6.468126863817458E-002  -1.12303756462127        128.196316595695     
   1.51295281889460        1.29340772293871        99.3887421930015     
  0.216772821489255        1.99901675534001        381.654112091407     
 -5.206052159189456E-003  0.749237294038434        57.1420302460162     
  0.525720299207618       -1.99628772045797        516.727631155590     
 -0.968435969523844       -1.71312762092517        706.652638773599     
   1.90239248932889        1.42712565914165        481.288228544844     
   1.81630048076486      -0.520804050889621        1459.71648896039     
