 variables= "x","y","f"
 zone i=          42  datapacking=point
   0.0000000000000000        0.0000000000000000        1.0000000000000000     
   1.1829344971728095       0.73271112879849687       0.34057629876802631     
 -0.60172395547861313       0.49412370062712396       0.62257586463654646     
   1.3709350890800791        1.4643094443914446       0.19905785251937044     
  0.57876952874410437       -1.7148043066779006       0.23388924250718093     
  0.47037872260666536      -0.71598208247415496       0.57673902449235670     
   1.6551911062215381       -5.6314517268739372E-002  0.26717758694844607     
  -1.9303504451821769       -1.3871825334687848       0.15036399614627141     
 -0.49084120597128811      -0.19502160700640014       0.78188618861296066     
  -1.5681487109907772       -1.0008759184210732       0.22417287575885630     
 -0.96629465240186452        1.9148029745436044       0.17856518559513249     
 -0.15058628265218421        1.0026843104559262       0.49308399040130452     
  0.52124458368186444       0.22060952529622657       0.75736663334655463     
 -0.58371605566357077      -0.75503598674937167       0.52333997510482699     
  -1.0566938828994306      -0.20921997932626990       0.46288260956217475     
 -0.41201137483042527       -1.3203653456751847       0.34327479815810757     
  -1.3566556724844303       0.29028051442725689       0.34190636291361470     
  -1.8377061689705840       0.64040089039233061       0.20888700296165483     
  -1.1216769363249761       0.81811793385375431       0.34159117436174069     
  0.85317996434223264      -0.26287027678245423       0.55647781428424070     
  -4.5868143631297320E-002 -0.43093278567815951       0.84188764681213968     
  0.11672188605779610       0.43622577000060492       0.83062209898037154     
  0.40386633554556006      -0.20376140769634254       0.83013266810866360     
  0.49173571487209022       0.65197928362646174       0.59992285008027701     
  0.95614235748816867       0.22368178979847064       0.50910230350049146     
  0.87929828127675114      -0.87801765223818840       0.39306932847402548     
  0.10927902449372073      -0.96033962544713147       0.51701119307369225     
   1.2190497857567957      -0.50727819626847936       0.36450939032642993     
 -0.61315723162695024       0.93283234638305457       0.44520862483552548     
   1.2910588832812979       -1.0129555163351607       0.27078902019808465     
 -0.29900500470655089       0.22646995853648555       0.87666034596240838     
 -0.71598448147996407       0.10559340521491256       0.65626110221833711     
  0.19904396540227198       0.88225282041887354       0.55005847307760036     
  0.54495803739377235        1.0571946182923093       0.41414045759359391     
 -0.94120164954246999      -0.56320752443883615       0.45391342947120844     
  0.37711858916869190        1.4188566952881412       0.31691976782995446     
  0.45873730031108062       -1.1207046518524311       0.40544614276323693     
 -0.27250162306965042      -0.95920359521169063       0.50142186401820676     
   9.6849117095332282E-003   1.3477279409267133       0.35505508250143519     
 -0.97666668144061020       0.39664442656561860       0.47366323298250146     
 -0.90686557629352293      -0.97450296168361139       0.36074239685489190     
   4.6795763421321634E-002   1.7234401284961836       0.25173472158883525     
