 variables= "x","y","fpcb"
 zone i=          30  datapacking=point
  0.000000000000000E+000  0.000000000000000E+000  0.000000000000000E+000
 -0.961272581931935       0.918721488910920       0.000000000000000E+000
  0.995163810769153      -0.978970337250826       0.000000000000000E+000
 -0.764590936048260      -0.726871918488417       0.000000000000000E+000
  0.278758643610078       0.153321165754765       0.000000000000000E+000
  0.682730114883827      -9.668432621166723E-002  0.000000000000000E+000
  -1.07909702351639       -1.93898778309903       0.000000000000000E+000
  -1.90091553647476       -1.53318773265666       0.000000000000000E+000
  -1.65293868480458      -0.562084782394823       0.000000000000000E+000
  2.504179399359696E-002  0.213476135301840       0.000000000000000E+000
  -1.46739585243141      -0.796249148555051       0.000000000000000E+000
  0.512391049234420        1.30262928975278       0.000000000000000E+000
   1.27360588849429        1.42840402488301       0.000000000000000E+000
 -0.298935434986869        1.66920493411694       0.000000000000000E+000
   1.99904076812085      -1.749980922847283E-002  0.000000000000000E+000
  -1.29422386439558        1.74277530823287       0.000000000000000E+000
  0.807097324671906       0.755639969137946       0.000000000000000E+000
 -8.078143766145440E-002  -1.06248685468973       0.000000000000000E+000
  -1.41776059521708      -0.251049431451768       0.000000000000000E+000
   1.62871069636281       -1.18089777495634       0.000000000000000E+000
 -0.742084813265304        1.06488952703488       0.000000000000000E+000
 -0.495318604260303       0.770694695289639       0.000000000000000E+000
   1.80090796346895       -1.69287694597546       0.000000000000000E+000
  0.136004159704296        1.47234143189281       0.000000000000000E+000
 -0.384984342148302       0.401066533473642       0.000000000000000E+000
   1.56816160022253       -1.34373737584722       0.000000000000000E+000
   1.05753228782247        1.87488974567133       0.000000000000000E+000
  -1.77897647835480       0.513334819738499       0.000000000000000E+000
  0.466466295550990      -0.381684627920279       0.000000000000000E+000
   1.41627081269597       -1.73216205611600       0.000000000000000E+000
