 variables= "x","y","fPC"
 zone i=         101  j=         101  datapacking=point
  0.250000000000000       0.250000000000000       0.885683089251337     
  0.250000000000000       0.265000000000000       0.877764072225369     
  0.250000000000000       0.280000000000000       0.869655536617033     
  0.250000000000000       0.295000000000000       0.861360062224427     
  0.250000000000000       0.310000000000000       0.852880228845654     
  0.250000000000000       0.325000000000000       0.844218616278812     
  0.250000000000000       0.340000000000000       0.835377804322004     
  0.250000000000000       0.355000000000000       0.826360372773328     
  0.250000000000000       0.370000000000000       0.817168901430886     
  0.250000000000000       0.385000000000000       0.807805970092779     
  0.250000000000000       0.400000000000000       0.798274158557106     
  0.250000000000000       0.415000000000000       0.788576046621967     
  0.250000000000000       0.430000000000000       0.778714214085465     
  0.250000000000000       0.445000000000000       0.768691240745698     
  0.250000000000000       0.460000000000000       0.758509706400768     
  0.250000000000000       0.475000000000000       0.748172190848775     
  0.250000000000000       0.490000000000000       0.737681273887818     
  0.250000000000000       0.505000000000000       0.727039535316000     
  0.250000000000000       0.520000000000000       0.716249554931420     
  0.250000000000000       0.535000000000000       0.705313912532178     
  0.250000000000000       0.550000000000000       0.694235187916376     
  0.250000000000000       0.565000000000000       0.683015960882114     
  0.250000000000000       0.580000000000000       0.671658811227491     
  0.250000000000000       0.595000000000000       0.660166318750609     
  0.250000000000000       0.610000000000000       0.648541063249568     
  0.250000000000000       0.625000000000000       0.636785624522468     
  0.250000000000000       0.640000000000000       0.624902582367410     
  0.250000000000000       0.655000000000000       0.612894516582495     
  0.250000000000000       0.670000000000000       0.600764006965822     
  0.250000000000000       0.685000000000000       0.588513633315493     
  0.250000000000000       0.700000000000000       0.576145975429607     
  0.250000000000000       0.715000000000000       0.563663613106266     
  0.250000000000000       0.730000000000000       0.551069126143569     
  0.250000000000000       0.745000000000000       0.538365094339618     
  0.250000000000000       0.760000000000000       0.525554097492511     
  0.250000000000000       0.775000000000000       0.512638715400352     
  0.250000000000000       0.790000000000000       0.499621527861238     
  0.250000000000000       0.805000000000000       0.486505114673271     
  0.250000000000000       0.820000000000000       0.473292055634552     
  0.250000000000000       0.835000000000000       0.459984930543181     
  0.250000000000000       0.850000000000000       0.446586319197257     
  0.250000000000000       0.865000000000000       0.433098801394883     
  0.250000000000000       0.880000000000000       0.419524956934158     
  0.250000000000000       0.895000000000000       0.405867365613183     
  0.250000000000000       0.910000000000000       0.392128607230058     
  0.250000000000000       0.925000000000000       0.378311261582883     
  0.250000000000000       0.940000000000000       0.364417908469759     
  0.250000000000000       0.955000000000000       0.350451127688788     
  0.250000000000000       0.970000000000000       0.336413499038067     
  0.250000000000000       0.985000000000000       0.322307602315700     
  0.250000000000000        1.00000000000000       0.308136017319785     
  0.250000000000000        1.01500000000000       0.293901323848424     
  0.250000000000000        1.03000000000000       0.279606101699716     
  0.250000000000000        1.04500000000000       0.265252930671763     
  0.250000000000000        1.06000000000000       0.250844390562664     
  0.250000000000000        1.07500000000000       0.236383061170521     
  0.250000000000000        1.09000000000000       0.221871522293433     
  0.250000000000000        1.10500000000000       0.207312353729502     
  0.250000000000000        1.12000000000000       0.192708135276827     
  0.250000000000000        1.13500000000000       0.178061446733509     
  0.250000000000000        1.15000000000000       0.163374867897649     
  0.250000000000000        1.16500000000000       0.148650978567346     
  0.250000000000000        1.18000000000000       0.133892358540702     
  0.250000000000000        1.19500000000000       0.119101587615817     
  0.250000000000000        1.21000000000000       0.104281245590791     
  0.250000000000000        1.22500000000000       8.943391226372453E-002
  0.250000000000000        1.24000000000000       7.456216743271862E-002
  0.250000000000000        1.25500000000000       5.966859089587317E-002
  0.250000000000000        1.27000000000000       4.475576245128918E-002
  0.250000000000000        1.28500000000000       2.982626189706694E-002
  0.250000000000000        1.30000000000000       1.488266903130672E-002
  0.250000000000000        1.31500000000000      -7.243634789147468E-005
  0.250000000000000        1.33000000000000      -1.503647444242634E-002
  0.250000000000000        1.34500000000000      -3.000686545419773E-002
  0.250000000000000        1.36000000000000      -4.498102958510550E-002
  0.250000000000000        1.37500000000000      -5.995638703704878E-002
  0.250000000000000        1.39000000000000      -7.493035801192696E-002
  0.250000000000000        1.40500000000000      -8.990036271164006E-002
  0.250000000000000        1.42000000000000      -0.104863821338087     
  0.250000000000000        1.43500000000000      -0.119818154093169     
  0.250000000000000        1.45000000000000      -0.134760781178783     
  0.250000000000000        1.46500000000000      -0.149689122796831     
  0.250000000000000        1.48000000000000      -0.164600599149210     
  0.250000000000000        1.49500000000000      -0.179492630437822     
  0.250000000000000        1.51000000000000      -0.194362636864565     
  0.250000000000000        1.52500000000000      -0.209208038631340     
  0.250000000000000        1.54000000000000      -0.224026255940045     
  0.250000000000000        1.55500000000000      -0.238814708992580     
  0.250000000000000        1.57000000000000      -0.253570817990844     
  0.250000000000000        1.58500000000000      -0.268292003136738     
  0.250000000000000        1.60000000000000      -0.282975684632161     
  0.250000000000000        1.61500000000000      -0.297619282679012     
  0.250000000000000        1.63000000000000      -0.312220217479191     
  0.250000000000000        1.64500000000000      -0.326775909234598     
  0.250000000000000        1.66000000000000      -0.341283778147131     
  0.250000000000000        1.67500000000000      -0.355741244418690     
  0.250000000000000        1.69000000000000      -0.370145728251176     
  0.250000000000000        1.70500000000000      -0.384494649846488     
  0.250000000000000        1.72000000000000      -0.398785429406524     
  0.250000000000000        1.73500000000000      -0.413015487133185     
  0.250000000000000        1.75000000000000      -0.427182243228370     
  0.265000000000000       0.250000000000000       0.877840999898730     
  0.265000000000000       0.265000000000000       0.869734370812050     
  0.265000000000000       0.280000000000000       0.861440998117714     
  0.265000000000000       0.295000000000000       0.852963461613822     
  0.265000000000000       0.310000000000000       0.844304341098475     
  0.265000000000000       0.325000000000000       0.835466216369773     
  0.265000000000000       0.340000000000000       0.826451667225817     
  0.265000000000000       0.355000000000000       0.817263273464707     
  0.265000000000000       0.370000000000000       0.807903614884543     
  0.265000000000000       0.385000000000000       0.798375271283426     
  0.265000000000000       0.400000000000000       0.788680822459457     
  0.265000000000000       0.415000000000000       0.778822848210736     
  0.265000000000000       0.430000000000000       0.768803928335363     
  0.265000000000000       0.445000000000000       0.758626642631438     
  0.265000000000000       0.460000000000000       0.748293570897064     
  0.265000000000000       0.475000000000000       0.737807292930339     
  0.265000000000000       0.490000000000000       0.727170388529364     
  0.265000000000000       0.505000000000000       0.716385437492239     
  0.265000000000000       0.520000000000000       0.705455019617067     
  0.265000000000000       0.535000000000000       0.694381714701945     
  0.265000000000000       0.550000000000000       0.683168102544976     
  0.265000000000000       0.565000000000000       0.671816762944259     
  0.265000000000000       0.580000000000000       0.660330275697894     
  0.265000000000000       0.595000000000000       0.648711220603984     
  0.265000000000000       0.610000000000000       0.636962177460627     
  0.265000000000000       0.625000000000000       0.625085726065925     
  0.265000000000000       0.640000000000000       0.613084446217977     
  0.265000000000000       0.655000000000000       0.600960917714885     
  0.265000000000000       0.670000000000000       0.588717720354748     
  0.265000000000000       0.685000000000000       0.576357433935668     
  0.265000000000000       0.700000000000000       0.563882638255744     
  0.265000000000000       0.715000000000000       0.551295913113078     
  0.265000000000000       0.730000000000000       0.538599838305769     
  0.265000000000000       0.745000000000000       0.525796993631917     
  0.265000000000000       0.760000000000000       0.512889958889625     
  0.265000000000000       0.775000000000000       0.499881313876991     
  0.265000000000000       0.790000000000000       0.486773638392116     
  0.265000000000000       0.805000000000000       0.473569512233102     
  0.265000000000000       0.820000000000000       0.460271515198048     
  0.265000000000000       0.835000000000000       0.446882227085054     
  0.265000000000000       0.850000000000000       0.433404227692222     
  0.265000000000000       0.865000000000000       0.419840096817651     
  0.265000000000000       0.880000000000000       0.406192414259443     
  0.265000000000000       0.895000000000000       0.392463759815697     
  0.265000000000000       0.910000000000000       0.378656713284514     
  0.265000000000000       0.925000000000000       0.364773854463995     
  0.265000000000000       0.940000000000000       0.350817763152239     
  0.265000000000000       0.955000000000000       0.336791019147349     
  0.265000000000000       0.970000000000000       0.322696202247423     
  0.265000000000000       0.985000000000000       0.308535892250562     
  0.265000000000000        1.00000000000000       0.294312668954867     
  0.265000000000000        1.01500000000000       0.280029112158438     
  0.265000000000000        1.03000000000000       0.265687801659376     
  0.265000000000000        1.04500000000000       0.251291317255781     
  0.265000000000000        1.06000000000000       0.236842238745754     
  0.265000000000000        1.07500000000000       0.222343145927395     
  0.265000000000000        1.09000000000000       0.207796618598805     
  0.265000000000000        1.10500000000000       0.193205236558083     
  0.265000000000000        1.12000000000000       0.178571579603331     
  0.265000000000000        1.13500000000000       0.163898227532649     
  0.265000000000000        1.15000000000000       0.149187760144137     
  0.265000000000000        1.16500000000000       0.134442757235896     
  0.265000000000000        1.18000000000000       0.119665798606027     
  0.265000000000000        1.19500000000000       0.104859464052629     
  0.265000000000000        1.21000000000000       9.002633337380331E-002
  0.265000000000000        1.22500000000000       7.516898636765024E-002
  0.265000000000000        1.24000000000000       6.029000283227068E-002
  0.265000000000000        1.25500000000000       4.539196256576414E-002
  0.265000000000000        1.27000000000000       3.047744536623206E-002
  0.265000000000000        1.28500000000000       1.554903103177455E-002
  0.265000000000000        1.30000000000000       6.092993604921715E-004
  0.265000000000000        1.31500000000000      -1.433916984951544E-002
  0.265000000000000        1.33000000000000      -2.929379680014693E-002
  0.265000000000000        1.34500000000000      -4.425200169330193E-002
  0.265000000000000        1.36000000000000      -5.921120473088018E-002
  0.265000000000000        1.37500000000000      -7.416882611478123E-002
  0.265000000000000        1.39000000000000      -8.912228604690461E-002
  0.265000000000000        1.40500000000000      -0.104069004729150     
  0.265000000000000        1.42000000000000      -0.119006402363416     
  0.265000000000000        1.43500000000000      -0.133931899151603     
  0.265000000000000        1.45000000000000      -0.148842915295611     
  0.265000000000000        1.46500000000000      -0.163736870997339     
  0.265000000000000        1.48000000000000      -0.178611186458686     
  0.265000000000000        1.49500000000000      -0.193463281881553     
  0.265000000000000        1.51000000000000      -0.208290577467838     
  0.265000000000000        1.52500000000000      -0.223090493419441     
  0.265000000000000        1.54000000000000      -0.237860449938262     
  0.265000000000000        1.55500000000000      -0.252597867226200     
  0.265000000000000        1.57000000000000      -0.267300165485155     
  0.265000000000000        1.58500000000000      -0.281964764917026     
  0.265000000000000        1.60000000000000      -0.296589085723713     
  0.265000000000000        1.61500000000000      -0.311170548107116     
  0.265000000000000        1.63000000000000      -0.325706572269133     
  0.265000000000000        1.64500000000000      -0.340194578411665     
  0.265000000000000        1.66000000000000      -0.354631986736611     
  0.265000000000000        1.67500000000000      -0.369016217445871     
  0.265000000000000        1.69000000000000      -0.383344690741343     
  0.265000000000000        1.70500000000000      -0.397614826824929     
  0.265000000000000        1.72000000000000      -0.411824045898526     
  0.265000000000000        1.73500000000000      -0.425969768164036     
  0.265000000000000        1.75000000000000      -0.440049413823356     
  0.280000000000000       0.250000000000000       0.869801491303238     
  0.280000000000000       0.265000000000000       0.861509905638697     
  0.280000000000000       0.280000000000000       0.853034351341213     
  0.280000000000000       0.295000000000000       0.844377408208886     
  0.280000000000000       0.310000000000000       0.835541656039817     
  0.280000000000000       0.325000000000000       0.826529674632106     
  0.280000000000000       0.340000000000000       0.817344043783853     
  0.280000000000000       0.355000000000000       0.807987343293159     
  0.280000000000000       0.370000000000000       0.798462152958125     
  0.280000000000000       0.385000000000000       0.788771052576850     
  0.280000000000000       0.400000000000000       0.778916621947436     
  0.280000000000000       0.415000000000000       0.768901440867983     
  0.280000000000000       0.430000000000000       0.758728089136591     
  0.280000000000000       0.445000000000000       0.748399146551361     
  0.280000000000000       0.460000000000000       0.737917192910392     
  0.280000000000000       0.475000000000000       0.727284808011787     
  0.280000000000000       0.490000000000000       0.716504571653645     
  0.280000000000000       0.505000000000000       0.705579063634066     
  0.280000000000000       0.520000000000000       0.694510863751151     
  0.280000000000000       0.535000000000000       0.683302551803001     
  0.280000000000000       0.550000000000000       0.671956707587716     
  0.280000000000000       0.565000000000000       0.660475910903396     
  0.280000000000000       0.580000000000000       0.648862741548142     
  0.280000000000000       0.595000000000000       0.637119779320054     
  0.280000000000000       0.610000000000000       0.625249604017233     
  0.280000000000000       0.625000000000000       0.613254795437779     
  0.280000000000000       0.640000000000000       0.601137933379793     
  0.280000000000000       0.655000000000000       0.588901597641376     
  0.280000000000000       0.670000000000000       0.576548368020626     
  0.280000000000000       0.685000000000000       0.564080824315646     
  0.280000000000000       0.700000000000000       0.551501546324535     
  0.280000000000000       0.715000000000000       0.538813113845395     
  0.280000000000000       0.730000000000000       0.526018106676324     
  0.280000000000000       0.745000000000000       0.513119104615425     
  0.280000000000000       0.760000000000000       0.500118687460797     
  0.280000000000000       0.775000000000000       0.487019435010541     
  0.280000000000000       0.790000000000000       0.473823927062757     
  0.280000000000000       0.805000000000000       0.460534743415546     
  0.280000000000000       0.820000000000000       0.447154463867008     
  0.280000000000000       0.835000000000000       0.433685668215244     
  0.280000000000000       0.850000000000000       0.420130936258353     
  0.280000000000000       0.865000000000000       0.406492847794438     
  0.280000000000000       0.880000000000000       0.392773982621597     
  0.280000000000000       0.895000000000000       0.378976920537932     
  0.280000000000000       0.910000000000000       0.365104241341543     
  0.280000000000000       0.925000000000000       0.351158524830530     
  0.280000000000000       0.940000000000000       0.337142350802994     
  0.280000000000000       0.955000000000000       0.323058299057036     
  0.280000000000000       0.970000000000000       0.308908949390755     
  0.280000000000000       0.985000000000000       0.294696881602252     
  0.280000000000000        1.00000000000000       0.280424675489629     
  0.280000000000000        1.01500000000000       0.266094910850984     
  0.280000000000000        1.03000000000000       0.251710167484419     
  0.280000000000000        1.04500000000000       0.237273025188034     
  0.280000000000000        1.06000000000000       0.222786063759929     
  0.280000000000000        1.07500000000000       0.208251862998206     
  0.280000000000000        1.09000000000000       0.193673002700963     
  0.280000000000000        1.10500000000000       0.179052062666304     
  0.280000000000000        1.12000000000000       0.164391622692326     
  0.280000000000000        1.13500000000000       0.149694262577130     
  0.280000000000000        1.15000000000000       0.134962562118819     
  0.280000000000000        1.16500000000000       0.120199101115491     
  0.280000000000000        1.18000000000000       0.105406459365247     
  0.280000000000000        1.19500000000000       9.058721666618819E-002
  0.280000000000000        1.21000000000000       7.574395281641438E-002
  0.280000000000000        1.22500000000000       6.087924761402558E-002
  0.280000000000000        1.24000000000000       4.599568085712338E-002
  0.280000000000000        1.25500000000000       3.109583234380739E-002
  0.280000000000000        1.27000000000000       1.618228187217852E-002
  0.280000000000000        1.28500000000000       1.257609240337049E-003
  0.280000000000000        1.30000000000000      -1.367560575361654E-002
  0.280000000000000        1.31500000000000      -2.861478331158193E-002
  0.280000000000000        1.33000000000000      -4.355734363545877E-002
  0.280000000000000        1.34500000000000      -5.850070692714618E-002
  0.280000000000000        1.36000000000000      -7.344229338854377E-002
  0.280000000000000        1.37500000000000      -8.837952322155099E-002
  0.280000000000000        1.39000000000000      -0.103309816628068     
  0.280000000000000        1.40500000000000      -0.118230593809994     
  0.280000000000000        1.42000000000000      -0.133139274969228     
  0.280000000000000        1.43500000000000      -0.148033280307670     
  0.280000000000000        1.45000000000000      -0.162910030027220     
  0.280000000000000        1.46500000000000      -0.177766944329777     
  0.280000000000000        1.48000000000000      -0.192601443417241     
  0.280000000000000        1.49500000000000      -0.207410947491510     
  0.280000000000000        1.51000000000000      -0.222192876754486     
  0.280000000000000        1.52500000000000      -0.236944651408067     
  0.280000000000000        1.54000000000000      -0.251663691654152     
  0.280000000000000        1.55500000000000      -0.266347417694642     
  0.280000000000000        1.57000000000000      -0.280993249731436     
  0.280000000000000        1.58500000000000      -0.295598607966433     
  0.280000000000000        1.60000000000000      -0.310160912601533     
  0.280000000000000        1.61500000000000      -0.324677583838636     
  0.280000000000000        1.63000000000000      -0.339146041879641     
  0.280000000000000        1.64500000000000      -0.353563706926447     
  0.280000000000000        1.66000000000000      -0.367927999180954     
  0.280000000000000        1.67500000000000      -0.382236338845062     
  0.280000000000000        1.69000000000000      -0.396486146120671     
  0.280000000000000        1.70500000000000      -0.410674841209678     
  0.280000000000000        1.72000000000000      -0.424799844313986     
  0.280000000000000        1.73500000000000      -0.438858575635492     
  0.280000000000000        1.75000000000000      -0.452848455376097     
  0.295000000000000       0.250000000000000       0.861567436928338     
  0.295000000000000       0.265000000000000       0.853093550168787     
  0.295000000000000       0.280000000000000       0.844438469751007     
  0.295000000000000       0.295000000000000       0.835604775473096     
  0.295000000000000       0.310000000000000       0.826595047133156     
  0.295000000000000       0.325000000000000       0.817411864529286     
  0.295000000000000       0.340000000000000       0.808057807459588     
  0.295000000000000       0.355000000000000       0.798535455722163     
  0.295000000000000       0.370000000000000       0.788847389115109     
  0.295000000000000       0.385000000000000       0.778996187436528     
  0.295000000000000       0.400000000000000       0.768984430484520     
  0.295000000000000       0.415000000000000       0.758814698057186     
  0.295000000000000       0.430000000000000       0.748489569952627     
  0.295000000000000       0.445000000000000       0.738011625968942     
  0.295000000000000       0.460000000000000       0.727383445904232     
  0.295000000000000       0.475000000000000       0.716607609556597     
  0.295000000000000       0.490000000000000       0.705686696724139     
  0.295000000000000       0.505000000000000       0.694623287204957     
  0.295000000000000       0.520000000000000       0.683419960797152     
  0.295000000000000       0.535000000000000       0.672079297298824     
  0.295000000000000       0.550000000000000       0.660603876508074     
  0.295000000000000       0.565000000000000       0.648996278223003     
  0.295000000000000       0.580000000000000       0.637259082241709     
  0.295000000000000       0.595000000000000       0.625394868362296     
  0.295000000000000       0.610000000000000       0.613406216382862     
  0.295000000000000       0.625000000000000       0.601295706101509     
  0.295000000000000       0.640000000000000       0.589065917316335     
  0.295000000000000       0.655000000000000       0.576719429825443     
  0.295000000000000       0.670000000000000       0.564258823426932     
  0.295000000000000       0.685000000000000       0.551686677918904     
  0.295000000000000       0.700000000000000       0.539005573099458     
  0.295000000000000       0.715000000000000       0.526218088766694     
  0.295000000000000       0.730000000000000       0.513326804718714     
  0.295000000000000       0.745000000000000       0.500334300753618     
  0.295000000000000       0.760000000000000       0.487243156669506     
  0.295000000000000       0.775000000000000       0.474055952264479     
  0.295000000000000       0.790000000000000       0.460775267336637     
  0.295000000000000       0.805000000000000       0.447403681684080     
  0.295000000000000       0.820000000000000       0.433943775104910     
  0.295000000000000       0.835000000000000       0.420398127397226     
  0.295000000000000       0.850000000000000       0.406769318359129     
  0.295000000000000       0.865000000000000       0.393059927788720     
  0.295000000000000       0.880000000000000       0.379272535484099     
  0.295000000000000       0.895000000000000       0.365409721243365     
  0.295000000000000       0.910000000000000       0.351474064864621     
  0.295000000000000       0.925000000000000       0.337468146145967     
  0.295000000000000       0.940000000000000       0.323394544885501     
  0.295000000000000       0.955000000000000       0.309255840881327     
  0.295000000000000       0.970000000000000       0.295054613931542     
  0.295000000000000       0.985000000000000       0.280793443834249     
  0.295000000000000        1.00000000000000       0.266474910387548     
  0.295000000000000        1.01500000000000       0.252101593389538     
  0.295000000000000        1.03000000000000       0.237676072638321     
  0.295000000000000        1.04500000000000       0.223200927931998     
  0.295000000000000        1.06000000000000       0.208678739068667     
  0.295000000000000        1.07500000000000       0.194112085846430     
  0.295000000000000        1.09000000000000       0.179503548063388     
  0.295000000000000        1.10500000000000       0.164855705517640     
  0.295000000000000        1.12000000000000       0.150171138007288     
  0.295000000000000        1.13500000000000       0.135452425330431     
  0.295000000000000        1.15000000000000       0.120702147285171     
  0.295000000000000        1.16500000000000       0.105922883669608     
  0.295000000000000        1.18000000000000       9.111721428184082E-002
  0.295000000000000        1.19500000000000       7.628771891997177E-002
  0.295000000000000        1.21000000000000       6.143697738210113E-002
  0.295000000000000        1.22500000000000       4.656756946632801E-002
  0.295000000000000        1.24000000000000       3.168207497075476E-002
  0.295000000000000        1.25500000000000       1.678307369348039E-002
  0.295000000000000        1.27000000000000       1.873145432605888E-003
  0.295000000000000        1.28500000000000      -1.304513001376803E-002
  0.295000000000000        1.30000000000000      -2.796917284754150E-002
  0.295000000000000        1.31500000000000      -4.289640327061367E-002
  0.295000000000000        1.33000000000000      -5.782424148488402E-002
  0.295000000000000        1.34500000000000      -7.275010769225268E-002
  0.295000000000000        1.36000000000000      -8.767142209461817E-002
  0.295000000000000        1.37500000000000      -0.102585604893881     
  0.295000000000000        1.39000000000000      -0.117490076291940     
  0.295000000000000        1.40500000000000      -0.132382256490695     
  0.295000000000000        1.42000000000000      -0.147259565692046     
  0.295000000000000        1.43500000000000      -0.162119424097892     
  0.295000000000000        1.45000000000000      -0.176959251910133     
  0.295000000000000        1.46500000000000      -0.191776469330667     
  0.295000000000000        1.48000000000000      -0.206568496561396     
  0.295000000000000        1.49500000000000      -0.221332753804217     
  0.295000000000000        1.51000000000000      -0.236066661261032     
  0.295000000000000        1.52500000000000      -0.250767639133739     
  0.295000000000000        1.54000000000000      -0.265433107624237     
  0.295000000000000        1.55500000000000      -0.280060486934428     
  0.295000000000000        1.57000000000000      -0.294647197266209     
  0.295000000000000        1.58500000000000      -0.309190658821481     
  0.295000000000000        1.60000000000000      -0.323688291802143     
  0.295000000000000        1.61500000000000      -0.338137516410094     
  0.295000000000000        1.63000000000000      -0.352535752847235     
  0.295000000000000        1.64500000000000      -0.366880421315464     
  0.295000000000000        1.66000000000000      -0.381168942016682     
  0.295000000000000        1.67500000000000      -0.395398735152787     
  0.295000000000000        1.69000000000000      -0.409567220925680     
  0.295000000000000        1.70500000000000      -0.423671819537259     
  0.295000000000000        1.72000000000000      -0.437709951189425     
  0.295000000000000        1.73500000000000      -0.451679036084077     
  0.295000000000000        1.75000000000000      -0.465576494423114     
  0.310000000000000       0.250000000000000       0.853141710237506     
  0.310000000000000       0.265000000000000       0.844488177865798     
  0.310000000000000       0.280000000000000       0.835656226810571     
  0.310000000000000       0.295000000000000       0.826648436869928     
  0.310000000000000       0.310000000000000       0.817467387841968     