 variables= "x","y","f"
 zone i=         132  datapacking=point
  0.000000000000000E+000  0.000000000000000E+000   1.00000000000000     
   1.64768335691574        1.74965111017953        29.8843361066917     
  -1.03467526648642       0.309872931147789       0.484420312269501     
 -0.779570232808658       0.278628627599796       0.605959816080959     
  0.450120111901997        1.04874866685781        4.47662215491126     
 -0.541202920728062        1.43334771895215        2.44035811804017     
  0.613198367374263      -0.717253971404008       0.901175187056142     
  0.101296352872708        1.50944917799505        5.00654236869703     
  7.558901327690570E-002 -0.397589076048422       0.724698144839500     
   1.99706525534450       0.895971386227721        18.0480318774268     
  -1.91967324778097       0.972767741459437       0.387939644713250     
  0.418136775979502      -0.188752487653280        1.25782531372997     
   1.21258015228518        1.19419192834922        11.0980795588584     
 -0.409655346427450       -1.12465716475305       0.215603865476772     
   1.76228725260665       0.238177051657743        7.39248766577113     
 -0.871733220523849       -1.99646071910371       5.680142079180993E-002
 -0.930160982704444       0.385457385901699       0.580013675771805     
  0.738562160699222       0.489155082209262        3.41342860750430     
 -0.359810911067299        1.29053540743487        2.53634608564686     
  -1.32671511312528        1.41790575566567        1.09547783002885     
   1.92962805590694        1.67333320818710        36.7067721062682     
 -0.252714734905574        1.57382542858992        3.74758148161558     
  0.531847394644730        1.60458899899414        8.46920288324838     
   1.38511601731359       -1.84063283547141       0.634120158434451     
   1.87391064638474       -1.01224896821770        2.36709077059291     
  -1.64178145532320        1.11632399895225       0.591284815483489     
   1.51037811265897      -0.476900752892851        2.81082310326939     
 -0.326968911584467       0.515305695704570        1.20724002616253     
  -1.29016110081739       -1.79152342813994       4.588190212162425E-002
 -0.775789370048217        1.52986541183587        2.12564660710565     
 -0.707209573442977       0.570114146351471       0.871887020519648     
  0.890531214133098      -0.992305624974113       0.903233288325503     
 -0.933487100458113       0.151422128840699       0.457460392576562     
 -0.293269893441805       5.154552558010117E-003  0.749675119061399     
 -0.223740273544111      -0.512473307341859       0.478923893275049     
  -1.01346447409402        1.63974947897787        1.87064820573160     
  0.534644978846197       -1.61600299669372       0.339134661861623     
   1.62548771255531      -4.022801115537544E-002   4.88055870187012     
   1.89259562398851       -1.36409188039583        1.69639217108861     
   1.46533941091407      -0.215897912523835        3.48839413956109     
  0.264822757499383       0.197677353309759        1.58803930028521     
 -0.818571191741575      -0.445883201836237       0.282393329730128     
 -0.565714238398309      -0.371186977788341       0.391840184004827     
  0.376673128565948      -0.799077664078352       0.655468825335684     
  -1.68220908549733       -1.48761313300989       4.201106602961058E-002
  -1.89573353037910       -1.88644556004984       2.277301286334307E-002
   1.79586790685889      -0.605031555026435        3.28983151372590     
  -1.58091384161572       -1.74244454737119       3.603162013384974E-002
 -0.525806244843104       0.413881657162360       0.894111681993620     
  -1.43929752849210        1.84946994453700        1.50707760707384     
   1.29895772701110       -1.91284063800035       0.541245176767477     
  0.345876655246091        1.54388570083199        6.61779581520749     
  -1.47700945501062       -1.56188107690982       4.788799022851943E-002
  0.482242311802588      -0.886404652014589       0.667535744577926     
  -1.51835102213012        1.70846398522268        1.20938620594718     
  -1.70425487409782      -0.258014090586079       0.140539180448184     
   1.71810204880782       0.473210055478949        8.94694474100521     
 -0.469552688995784       -1.87310135507944       9.607231939655739E-002
  -1.11555539922041        1.07560151988375       0.960833752420458     
  -1.84188474755765        1.97062256852682        1.13739188476936     
  0.206406581965316        1.78022678851500        7.29094648174848     
  0.159392563748998        1.82888650180887        7.30295503498242     
 -0.600631432767939        1.14887102696321        1.73020447331873     
 -3.386455408394706E-002  -1.52006967320759       0.211414582505926     
 -0.184461241667523      -0.269012847707534       0.635416817844680     
   1.56143802392410       -1.17679399725631        1.46909127103560     
  0.585051315724076      -0.666788196680490       0.921514394786381     
   1.59868476647571      -0.297007850596164        3.67545493147005     
  0.697923615508244        1.89897871533044        13.4220963582615     
  -1.41764147151597        1.32610827202140       0.912531020080461     
  -1.56738733947918      -0.861630889704413       8.812330701746333E-002
   1.13472583593626       0.126888653954211        3.53111784183240     
  0.405826888746734      -0.145751752447817        1.29702753685342     
 -0.672060964893031      -0.947413294435078       0.198002769833353     
  -1.22176671489630       -1.64852200031262       5.668255910029770E-002
  -1.80569633283685       -1.21307603426670       4.886116513184562E-002
 -0.979487353091619      -7.730484603330456E-002  0.347568956001919     
  1.559858531740366E-002  0.767987095624005        2.18930836951342     
  -1.98724832582891        1.33010853672093       0.518331754455568     
   1.20288398796185       0.538756823026837        5.70669935992952     
  -1.20515017882519      -0.839266223733257       0.129455717962055     
   1.74323456226136        1.23120366972094        19.5786215162759     
  -1.60938381310264      -0.595037481640770       0.110314346328020     
  -1.06641855031835       -1.34457225669015       8.972634902012964E-002
  0.978233975301095       -1.46255940018985       0.616112670887782     
   1.94178167868609       -1.17477027227259        2.15332122579226     
 -0.108914106688607       0.735270556595864        1.87078185901082     
 -0.412520861141132       -1.39172474325021       0.164598582198958     
  0.197001331632884        1.46544632556553        5.27219960168899     
 -5.205433483420263E-002 -0.442079489197278       0.610099131701935     
   1.82508453943235       0.687582313858260        12.3377892996431     
  -1.86521445551209       0.653964283454016       0.297824714457034     
   1.26431034173793      -0.913891016932141        1.41966272359457     
   1.41658536964405       0.325281490381773        5.70798949963698     
  6.893110591397189E-004  -1.42147206542317       0.241524888225766     
  0.653953275192742      -0.726805068373081       0.929738613418332     
 -0.732494650430623        1.01469678853544        1.32604673747202     
   1.42042549352633        1.36770356087141        16.2505873769729     
  0.908063590728656      -5.968754082401428E-002   2.33585046560299     
   1.67209762727588       0.862035736706773        12.6055017311208     
  0.685279648066193       8.195509481696206E-002   2.15380219465981     
  -1.77213049847191      -0.321179421606209       0.123278418067895     
   1.26836105002466       -1.05490532118111        1.23794869163471     
  -1.49552689092501        1.80932037005769        1.36860706144188     
 -0.847173319693435      -0.645670190904060       0.224732716273258     
  0.764122803126263      -0.114776377535488        1.91428928957985     
  0.108135363428829        1.09082736127817        3.31667483298867     
  -1.25596975132303       0.619430473880476       0.529120398060354     
  -1.35841963660554       -1.69004073672034       4.743189561419733E-002
   1.16330497553402       -1.03374602404527        1.13832621550991     
  -1.73785633618654       2.904717101509524E-002  0.181081302194953     
 -0.487320133840665       0.684352881251075        1.21778391932274     
   1.51890750114495       -1.77578127700829       0.773465837661668     
   1.34707403992803       0.947894124790257        9.92412007009814     
   1.06728221685664       0.813807272972709        6.56064872996410     
  0.957256889791914       7.105059689597848E-002   2.79632900319171     
 -8.574332059946177E-002  -1.69994619116567       0.167681402830888     
 -0.263561815495910      -0.766627265377178       0.356939463762723     
  -1.16434904676576       0.364253106496895       0.449285857443461     
  0.800838193332150       -1.29574901870733       0.609625267977029     
 -0.648362509433721       0.911128083745899        1.30052180749433     
  0.314815405041297       -1.32678502310320       0.363502313301972     
 -0.164663021486919        1.91495640047222        5.75629120317671     
  -1.96468457049059      -0.549151303339652       8.095710165252867E-002
   1.10367567727146       -1.09740559724769        1.00628977812356     
   1.01909265179181        1.94992859999016        19.4728512475388     
  -1.08690054790321        1.24387317407066        1.16996358707524     
  0.248750957249078       -1.94875422773298       0.182682926590187     
  -1.38006607738461       -1.59780167298928       5.090125241254287E-002
  0.832490840225466       0.800717188296221        5.12027438543980     
   1.04759749162625       -1.24697964459904       0.819236759741116     
  0.864171555332765       0.211586524218843        2.93221491036165     
