 variables= "x","y","fPC"
 zone i=         101  j=         101  datapacking=point
  0.250000000000000       0.250000000000000       0.896776923877226     
  0.250000000000000       0.265000000000000       0.888923829636602     
  0.250000000000000       0.280000000000000       0.880867021866488     
  0.250000000000000       0.295000000000000       0.872609483346578     
  0.250000000000000       0.310000000000000       0.864154196856561     
  0.250000000000000       0.325000000000000       0.855504145176130     
  0.250000000000000       0.340000000000000       0.846662311084976     
  0.250000000000000       0.355000000000000       0.837631677362790     
  0.250000000000000       0.370000000000000       0.828415226789262     
  0.250000000000000       0.385000000000000       0.819015942144087     
  0.250000000000000       0.400000000000000       0.809436806206953     
  0.250000000000000       0.415000000000000       0.799680801757552     
  0.250000000000000       0.430000000000000       0.789750911575577     
  0.250000000000000       0.445000000000000       0.779650118440717     
  0.250000000000000       0.460000000000000       0.769381405132666     
  0.250000000000000       0.475000000000000       0.758947754431113     
  0.250000000000000       0.490000000000000       0.748352149115750     
  0.250000000000000       0.505000000000000       0.737597571966269     
  0.250000000000000       0.520000000000000       0.726687005762360     
  0.250000000000000       0.535000000000000       0.715623433283717     
  0.250000000000000       0.550000000000000       0.704409837310028     
  0.250000000000000       0.565000000000000       0.693049200620987     
  0.250000000000000       0.580000000000000       0.681544505996284     
  0.250000000000000       0.595000000000000       0.669898736215611     
  0.250000000000000       0.610000000000000       0.658114874058659     
  0.250000000000000       0.625000000000000       0.646195902305119     
  0.250000000000000       0.640000000000000       0.634144803734683     
  0.250000000000000       0.655000000000000       0.621964561127042     
  0.250000000000000       0.670000000000000       0.609658157261888     
  0.250000000000000       0.685000000000000       0.597228574918911     
  0.250000000000000       0.700000000000000       0.584678796877804     
  0.250000000000000       0.715000000000000       0.572011805918257     
  0.250000000000000       0.730000000000000       0.559230584819962     
  0.250000000000000       0.745000000000000       0.546338116362610     
  0.250000000000000       0.760000000000000       0.533337383325892     
  0.250000000000000       0.775000000000000       0.520231368489501     
  0.250000000000000       0.790000000000000       0.507023054633127     
  0.250000000000000       0.805000000000000       0.493715424536461     
  0.250000000000000       0.820000000000000       0.480311460979196     
  0.250000000000000       0.835000000000000       0.466814146741021     
  0.250000000000000       0.850000000000000       0.453226464601629     
  0.250000000000000       0.865000000000000       0.439551397340712     
  0.250000000000000       0.880000000000000       0.425791927737959     
  0.250000000000000       0.895000000000000       0.411951038573064     
  0.250000000000000       0.910000000000000       0.398031712625716     
  0.250000000000000       0.925000000000000       0.384036932675608     
  0.250000000000000       0.940000000000000       0.369969681502431     
  0.250000000000000       0.955000000000000       0.355832941885875     
  0.250000000000000       0.970000000000000       0.341629696605633     
  0.250000000000000       0.985000000000000       0.327362928441396     
  0.250000000000000        1.00000000000000       0.313035620172855     
  0.250000000000000        1.01500000000000       0.298650754579702     
  0.250000000000000        1.03000000000000       0.284211314441628     
  0.250000000000000        1.04500000000000       0.269720282538323     
  0.250000000000000        1.06000000000000       0.255180641649481     
  0.250000000000000        1.07500000000000       0.240595374554791     
  0.250000000000000        1.09000000000000       0.225967464033945     
  0.250000000000000        1.10500000000000       0.211299892866635     
  0.250000000000000        1.12000000000000       0.196595643832552     
  0.250000000000000        1.13500000000000       0.181857699711387     
  0.250000000000000        1.15000000000000       0.167089043282833     
  0.250000000000000        1.16500000000000       0.152292657326579     
  0.250000000000000        1.18000000000000       0.137471524622317     
  0.250000000000000        1.19500000000000       0.122628627949739     
  0.250000000000000        1.21000000000000       0.107766950088536     
  0.250000000000000        1.22500000000000       9.288947381839924E-002
  0.250000000000000        1.24000000000000       7.799918191902083E-002
  0.250000000000000        1.25500000000000       6.309905717009114E-002
  0.250000000000000        1.27000000000000       4.819208235130218E-002
  0.250000000000000        1.28500000000000       3.328124024234511E-002
  0.250000000000000        1.30000000000000       1.836951362291098E-002
  0.250000000000000        1.31500000000000       3.459885272691199E-003
  0.250000000000000        1.33000000000000      -1.144466202862271E-002
  0.250000000000000        1.34500000000000      -2.634114550133906E-002
  0.250000000000000        1.36000000000000      -4.122658236576687E-002
  0.250000000000000        1.37500000000000      -5.609798984221503E-002
  0.250000000000000        1.39000000000000      -7.095238515099173E-002
  0.250000000000000        1.40500000000000      -8.578678551240565E-002
  0.250000000000000        1.42000000000000      -0.100598208146766     
  0.250000000000000        1.43500000000000      -0.115383670274381     
  0.250000000000000        1.45000000000000      -0.130140189115560     
  0.250000000000000        1.46500000000000      -0.144864781890609     
  0.250000000000000        1.48000000000000      -0.159554465819840     
  0.250000000000000        1.49500000000000      -0.174206258123560     
  0.250000000000000        1.51000000000000      -0.188817176022078     
  0.250000000000000        1.52500000000000      -0.203384236735703     
  0.250000000000000        1.54000000000000      -0.217904457484743     
  0.250000000000000        1.55500000000000      -0.232374855489506     
  0.250000000000000        1.57000000000000      -0.246792447970303     
  0.250000000000000        1.58500000000000      -0.261154252147440     
  0.250000000000000        1.60000000000000      -0.275457285241227     
  0.250000000000000        1.61500000000000      -0.289698564471973     
  0.250000000000000        1.63000000000000      -0.303875107059985     
  0.250000000000000        1.64500000000000      -0.317983930225574     
  0.250000000000000        1.66000000000000      -0.332022051189047     
  0.250000000000000        1.67500000000000      -0.345986487170713     
  0.250000000000000        1.69000000000000      -0.359874255390881     
  0.250000000000000        1.70500000000000      -0.373682373069859     
  0.250000000000000        1.72000000000000      -0.387407857427956     
  0.250000000000000        1.73500000000000      -0.401047725685481     
  0.250000000000000        1.75000000000000      -0.414598995062742     
  0.265000000000000       0.250000000000000       0.887856581449568     
  0.265000000000000       0.265000000000000       0.879826810753079     
  0.265000000000000       0.280000000000000       0.871595926405784     
  0.265000000000000       0.295000000000000       0.863166911187375     
  0.265000000000000       0.310000000000000       0.854542747877541     
  0.265000000000000       0.325000000000000       0.845726419255976     
  0.265000000000000       0.340000000000000       0.836720908102370     
  0.265000000000000       0.355000000000000       0.827529197196415     
  0.265000000000000       0.370000000000000       0.818154269317802     
  0.265000000000000       0.385000000000000       0.808599107246222     
  0.265000000000000       0.400000000000000       0.798866693761366     
  0.265000000000000       0.415000000000000       0.788960011642927     
  0.265000000000000       0.430000000000000       0.778882043670596     
  0.265000000000000       0.445000000000000       0.768635772624063     
  0.265000000000000       0.460000000000000       0.758224181283020     
  0.265000000000000       0.475000000000000       0.747650252427159     
  0.265000000000000       0.490000000000000       0.736916968836170     
  0.265000000000000       0.505000000000000       0.726027313289746     
  0.265000000000000       0.520000000000000       0.714984268567577     
  0.265000000000000       0.535000000000000       0.703790817449355     
  0.265000000000000       0.550000000000000       0.692449942714771     
  0.265000000000000       0.565000000000000       0.680964627143517     
  0.265000000000000       0.580000000000000       0.669337853515283     
  0.265000000000000       0.595000000000000       0.657572604609762     
  0.265000000000000       0.610000000000000       0.645671863206645     
  0.265000000000000       0.625000000000000       0.633638612085623     
  0.265000000000000       0.640000000000000       0.621475834026386     
  0.265000000000000       0.655000000000000       0.609186511808628     
  0.265000000000000       0.670000000000000       0.596773628212038     
  0.265000000000000       0.685000000000000       0.584240166016309     
  0.265000000000000       0.700000000000000       0.571589108001132     
  0.265000000000000       0.715000000000000       0.558823436946198     
  0.265000000000000       0.730000000000000       0.545946135631198     
  0.265000000000000       0.745000000000000       0.532960186835824     
  0.265000000000000       0.760000000000000       0.519868573339767     
  0.265000000000000       0.775000000000000       0.506674277922718     
  0.265000000000000       0.790000000000000       0.493380283364370     
  0.265000000000000       0.805000000000000       0.479989572444412     
  0.265000000000000       0.820000000000000       0.466505127942537     
  0.265000000000000       0.835000000000000       0.452929932638436     
  0.265000000000000       0.850000000000000       0.439266969311800     
  0.265000000000000       0.865000000000000       0.425519220742321     
  0.265000000000000       0.880000000000000       0.411689669709690     
  0.265000000000000       0.895000000000000       0.397781298993597     
  0.265000000000000       0.910000000000000       0.383797091373736     
  0.265000000000000       0.925000000000000       0.369740029629796     
  0.265000000000000       0.940000000000000       0.355613096541470     
  0.265000000000000       0.955000000000000       0.341419274888449     
  0.265000000000000       0.970000000000000       0.327161547450423     
  0.265000000000000       0.985000000000000       0.312842897007085     
  0.265000000000000        1.00000000000000       0.298466306338126     
  0.265000000000000        1.01500000000000       0.284034758223237     
  0.265000000000000        1.03000000000000       0.269551235442109     
  0.265000000000000        1.04500000000000       0.255018720774434     
  0.265000000000000        1.06000000000000       0.240440196999903     
  0.265000000000000        1.07500000000000       0.225818646898207     
  0.265000000000000        1.09000000000000       0.211157053249039     
  0.265000000000000        1.10500000000000       0.196458398832088     
  0.265000000000000        1.12000000000000       0.181725666427048     
  0.265000000000000        1.13500000000000       0.166961838813607     
  0.265000000000000        1.15000000000000       0.152169898771460     
  0.265000000000000        1.16500000000000       0.137352829080295     
  0.265000000000000        1.18000000000000       0.122513612519806     
  0.265000000000000        1.19500000000000       0.107655231869683     
  0.265000000000000        1.21000000000000       9.278066990961775E-002
  0.265000000000000        1.22500000000000       7.789290941930117E-002
  0.265000000000000        1.24000000000000       6.299493317842542E-002
  0.265000000000000        1.25500000000000       4.808972396668085E-002
  0.265000000000000        1.27000000000000       3.318026456375947E-002
  0.265000000000000        1.28500000000000       1.826953774935269E-002
  0.265000000000000        1.30000000000000       3.360526303151756E-003
  0.265000000000000        1.31500000000000      -1.154378699515257E-002
  0.265000000000000        1.33000000000000      -2.644041936586836E-002
  0.265000000000000        1.34500000000000      -4.132638802930402E-002
  0.265000000000000        1.36000000000000      -5.619871020576866E-002
  0.265000000000000        1.37500000000000      -7.105440311557104E-002
  0.265000000000000        1.39000000000000      -8.589048397901955E-002
  0.265000000000000        1.40500000000000      -0.100703970016423     
  0.265000000000000        1.42000000000000      -0.115491878448089     
  0.265000000000000        1.43500000000000      -0.130251226494328     
  0.265000000000000        1.45000000000000      -0.144979031375448     
  0.265000000000000        1.46500000000000      -0.159672310311757     
  0.265000000000000        1.48000000000000      -0.174328080523564     
  0.265000000000000        1.49500000000000      -0.188943359231177     
  0.265000000000000        1.51000000000000      -0.203515163654906     
  0.265000000000000        1.52500000000000      -0.218040511015060     
  0.265000000000000        1.54000000000000      -0.232516418531945     
  0.265000000000000        1.55500000000000      -0.246939903425872     
  0.265000000000000        1.57000000000000      -0.261307982917150     
  0.265000000000000        1.58500000000000      -0.275617674226085     
  0.265000000000000        1.60000000000000      -0.289865994572988     
  0.265000000000000        1.61500000000000      -0.304049961178166     
  0.265000000000000        1.63000000000000      -0.318166591261930     
  0.265000000000000        1.64500000000000      -0.332212902044587     
  0.265000000000000        1.66000000000000      -0.346185910746445     
  0.265000000000000        1.67500000000000      -0.360082634587813     
  0.265000000000000        1.69000000000000      -0.373900090789002     
  0.265000000000000        1.70500000000000      -0.387635296570318     
  0.265000000000000        1.72000000000000      -0.401285269152070     
  0.265000000000000        1.73500000000000      -0.414847025754567     
  0.265000000000000        1.75000000000000      -0.428317583598119     
  0.280000000000000       0.250000000000000       0.878774469789484     
  0.280000000000000       0.265000000000000       0.870570665100590     
  0.280000000000000       0.280000000000000       0.862168346639572     
  0.280000000000000       0.295000000000000       0.853570497186122     
  0.280000000000000       0.310000000000000       0.844780099519931     
  0.280000000000000       0.325000000000000       0.835800136420691     
  0.280000000000000       0.340000000000000       0.826633590668093     
  0.280000000000000       0.355000000000000       0.817283445041828     
  0.280000000000000       0.370000000000000       0.807752682321588     
  0.280000000000000       0.385000000000000       0.798044285287064     
  0.280000000000000       0.400000000000000       0.788161236717946     
  0.280000000000000       0.415000000000000       0.778106519393928     
  0.280000000000000       0.430000000000000       0.767883116094699     
  0.280000000000000       0.445000000000000       0.757494009599952     
  0.280000000000000       0.460000000000000       0.746942182689378     
  0.280000000000000       0.475000000000000       0.736230618142667     
  0.280000000000000       0.490000000000000       0.725362298739512     
  0.280000000000000       0.505000000000000       0.714340207259604     
  0.280000000000000       0.520000000000000       0.703167326482633     
  0.280000000000000       0.535000000000000       0.691846639188293     
  0.280000000000000       0.550000000000000       0.680381128156272     
  0.280000000000000       0.565000000000000       0.668773776166265     
  0.280000000000000       0.580000000000000       0.657027565997960     
  0.280000000000000       0.595000000000000       0.645145480431050     
  0.280000000000000       0.610000000000000       0.633130502245227     
  0.280000000000000       0.625000000000000       0.620985614220181     
  0.280000000000000       0.640000000000000       0.608713799135604     
  0.280000000000000       0.655000000000000       0.596318039771187     
  0.280000000000000       0.670000000000000       0.583801318906622     
  0.280000000000000       0.685000000000000       0.571166619321600     
  0.280000000000000       0.700000000000000       0.558416923795812     
  0.280000000000000       0.715000000000000       0.545555215108950     
  0.280000000000000       0.730000000000000       0.532584476040705     
  0.280000000000000       0.745000000000000       0.519507689370768     
  0.280000000000000       0.760000000000000       0.506327837878830     
  0.280000000000000       0.775000000000000       0.493047904344584     
  0.280000000000000       0.790000000000000       0.479670871547720     
  0.280000000000000       0.805000000000000       0.466199722267930     
  0.280000000000000       0.820000000000000       0.452637439284905     
  0.280000000000000       0.835000000000000       0.438987005378337     
  0.280000000000000       0.850000000000000       0.425251403327916     
  0.280000000000000       0.865000000000000       0.411433615913334     
  0.280000000000000       0.880000000000000       0.397536625914283     
  0.280000000000000       0.895000000000000       0.383563416110454     
  0.280000000000000       0.910000000000000       0.369516969281538     
  0.280000000000000       0.925000000000000       0.355400268207226     
  0.280000000000000       0.940000000000000       0.341216295667211     
  0.280000000000000       0.955000000000000       0.326968034441182     
  0.280000000000000       0.970000000000000       0.312658467308833     
  0.280000000000000       0.985000000000000       0.298290577049853     
  0.280000000000000        1.00000000000000       0.283867346443934     
  0.280000000000000        1.01500000000000       0.269391758270768     
  0.280000000000000        1.03000000000000       0.254866795310046     
  0.280000000000000        1.04500000000000       0.240295440341460     
  0.280000000000000        1.06000000000000       0.225680676144700     
  0.280000000000000        1.07500000000000       0.211025485499458     
  0.280000000000000        1.09000000000000       0.196332851185426     
  0.280000000000000        1.10500000000000       0.181605755982294     
  0.280000000000000        1.12000000000000       0.166847182669755     
  0.280000000000000        1.13500000000000       0.152060114027499     
  0.280000000000000        1.15000000000000       0.137247532835217     
  0.280000000000000        1.16500000000000       0.122412421872602     
  0.280000000000000        1.18000000000000       0.107557763919345     
  0.280000000000000        1.19500000000000       9.268654175513584E-002
  0.280000000000000        1.21000000000000       7.780173815966755E-002
  0.280000000000000        1.22500000000000       6.290633591263017E-002
  0.280000000000000        1.24000000000000       4.800331779371650E-002
  0.280000000000000        1.25500000000000       3.309566658261637E-002
  0.280000000000000        1.27000000000000       1.818636505902207E-002
  0.280000000000000        1.28500000000000       3.278396002624973E-003
  0.280000000000000        1.30000000000000      -1.162525780688384E-002
  0.280000000000000        1.31500000000000      -2.652161358981336E-002
  0.280000000000000        1.33000000000000      -4.140768856647173E-002
  0.280000000000000        1.34500000000000      -5.628049995716758E-002
  0.280000000000000        1.36000000000000      -7.113706498220967E-002
  0.280000000000000        1.37500000000000      -8.597440086190705E-002
  0.280000000000000        1.39000000000000      -0.100789524816568     
  0.280000000000000        1.40500000000000      -0.115579454066501     
  0.280000000000000        1.42000000000000      -0.130341205832015     
  0.280000000000000        1.43500000000000      -0.145071797333418     
  0.280000000000000        1.45000000000000      -0.159768245791020     
  0.280000000000000        1.46500000000000      -0.174427568425128     
  0.280000000000000        1.48000000000000      -0.189046782456052     
  0.280000000000000        1.49500000000000      -0.203622905104100     
  0.280000000000000        1.51000000000000      -0.218152953589581     
  0.280000000000000        1.52500000000000      -0.232633945132804     
  0.280000000000000        1.54000000000000      -0.247062896954076     
  0.280000000000000        1.55500000000000      -0.261436826273707     
  0.280000000000000        1.57000000000000      -0.275752750312006     
  0.280000000000000        1.58500000000000      -0.290007686289280     
  0.280000000000000        1.60000000000000      -0.304198651425840     
  0.280000000000000        1.61500000000000      -0.318322662941992     
  0.280000000000000        1.63000000000000      -0.332376738058047     
  0.280000000000000        1.64500000000000      -0.346357893994312     
  0.280000000000000        1.66000000000000      -0.360263147971096     
  0.280000000000000        1.67500000000000      -0.374089517208708     
  0.280000000000000        1.69000000000000      -0.387834018927458     
  0.280000000000000        1.70500000000000      -0.401493670347652     
  0.280000000000000        1.72000000000000      -0.415065488689600     
  0.280000000000000        1.73500000000000      -0.428546491173611     
  0.280000000000000        1.75000000000000      -0.441933695019993     
  0.295000000000000       0.250000000000000       0.869532837439538     
  0.295000000000000       0.265000000000000       0.861157641221698     
  0.295000000000000       0.280000000000000       0.852586531110417     
  0.295000000000000       0.295000000000000       0.843822489885387     
  0.295000000000000       0.310000000000000       0.834868500326298     
  0.295000000000000       0.325000000000000       0.825727545212843     
  0.295000000000000       0.340000000000000       0.816402607324712     
  0.295000000000000       0.355000000000000       0.806896669441596     
  0.295000000000000       0.370000000000000       0.797212714343188     
  0.295000000000000       0.385000000000000       0.787353724809178     
  0.295000000000000       0.400000000000000       0.777322683619258     
  0.295000000000000       0.415000000000000       0.767122573553120     
  0.295000000000000       0.430000000000000       0.756756377390454     
  0.295000000000000       0.445000000000000       0.746227077910952     
  0.295000000000000       0.460000000000000       0.735537657894305     
  0.295000000000000       0.475000000000000       0.724691100120204     
  0.295000000000000       0.490000000000000       0.713690387368342     
  0.295000000000000       0.505000000000000       0.702538502418409     
  0.295000000000000       0.520000000000000       0.691238428050096     
  0.295000000000000       0.535000000000000       0.679793147043096     
  0.295000000000000       0.550000000000000       0.668205642177099     
  0.295000000000000       0.565000000000000       0.656478896231797     
  0.295000000000000       0.580000000000000       0.644615891986880     
  0.295000000000000       0.595000000000000       0.632619612222042     
  0.295000000000000       0.610000000000000       0.620493039716971     
  0.295000000000000       0.625000000000000       0.608239157251362     
  0.295000000000000       0.640000000000000       0.595860947604903     
  0.295000000000000       0.655000000000000       0.583361393557287     
  0.295000000000000       0.670000000000000       0.570743477888206     
  0.295000000000000       0.685000000000000       0.558010183377350     
  0.295000000000000       0.700000000000000       0.545164492804410     
  0.295000000000000       0.715000000000000       0.532209388949079     
  0.295000000000000       0.730000000000000       0.519147854591048     
  0.295000000000000       0.745000000000000       0.505982872510007     
  0.295000000000000       0.760000000000000       0.492717425485649     
  0.295000000000000       0.775000000000000       0.479354496297665     
  0.295000000000000       0.790000000000000       0.465897067725745     
  0.295000000000000       0.805000000000000       0.452348122549581     
  0.295000000000000       0.820000000000000       0.438710643548866     
  0.295000000000000       0.835000000000000       0.424987613503289     
  0.295000000000000       0.850000000000000       0.411182015192543     
  0.295000000000000       0.865000000000000       0.397296831396318     
  0.295000000000000       0.880000000000000       0.383335044894307     
  0.295000000000000       0.895000000000000       0.369299638466199     
  0.295000000000000       0.910000000000000       0.355193594891688     
  0.295000000000000       0.925000000000000       0.341019896950464     
  0.295000000000000       0.940000000000000       0.326781527422218     
  0.295000000000000       0.955000000000000       0.312481469086642     
  0.295000000000000       0.970000000000000       0.298122704723427     
  0.295000000000000       0.985000000000000       0.283708217112265     
  0.295000000000000        1.00000000000000       0.269240989032846     
  0.295000000000000        1.01500000000000       0.254724003264863     
  0.295000000000000        1.03000000000000       0.240160242588006     
  0.295000000000000        1.04500000000000       0.225552689781968     
  0.295000000000000        1.06000000000000       0.210904327626438     
  0.295000000000000        1.07500000000000       0.196218138901109     
  0.295000000000000        1.09000000000000       0.181497106385673     
  0.295000000000000        1.10500000000000       0.166744212859819     
  0.295000000000000        1.12000000000000       0.151962441103241     
  0.295000000000000        1.13500000000000       0.137154773895628     
  0.295000000000000        1.15000000000000       0.122324194016672     
  0.295000000000000        1.16500000000000       0.107473684246065     
  0.295000000000000        1.18000000000000       9.260622736349851E-002
  0.295000000000000        1.19500000000000       7.772480614866326E-002
  0.295000000000000        1.21000000000000       6.283240338125101E-002
  0.295000000000000        1.22500000000000       4.793200184095234E-002
  0.295000000000000        1.24000000000000       3.302658430745981E-002
  0.295000000000000        1.25500000000000       1.811913356046355E-002
  0.295000000000000        1.27000000000000       3.212632379655606E-003
  0.295000000000000        1.28500000000000      -1.168993645527255E-002
  0.295000000000000        1.30000000000000      -2.658559016462986E-002
  0.295000000000000        1.31500000000000      -4.147134596872529E-002
  0.295000000000000        1.33000000000000      -5.634422108786699E-002
  0.295000000000000        1.34500000000000      -7.120123274236370E-002
  0.295000000000000        1.36000000000000      -8.603939815252393E-002
  0.295000000000000        1.37500000000000      -0.100855734538657     
  0.295000000000000        1.39000000000000      -0.115647259121071     
  0.295000000000000        1.40500000000000      -0.130410989120074     
  0.295000000000000        1.42000000000000      -0.145143941755976     
  0.295000000000000        1.43500000000000      -0.159843134249085     
  0.295000000000000        1.45000000000000      -0.174505583819710     
  0.295000000000000        1.46500000000000      -0.189128307688158     
  0.295000000000000        1.48000000000000      -0.203708323074739     
  0.295000000000000        1.49500000000000      -0.218242647199763     
  0.295000000000000        1.51000000000000      -0.232728297283536     
  0.295000000000000        1.52500000000000      -0.247162290546369     
  0.295000000000000        1.54000000000000      -0.261541644208568     
  0.295000000000000        1.55500000000000      -0.275863375490444     
  0.295000000000000        1.57000000000000      -0.290124501612305     
  0.295000000000000        1.58500000000000      -0.304322039794459     
  0.295000000000000        1.60000000000000      -0.318453007257216     
  0.295000000000000        1.61500000000000      -0.332514421220882     
  0.295000000000000        1.63000000000000      -0.346503298905769     
  0.295000000000000        1.64500000000000      -0.360416657532184     
  0.295000000000000        1.66000000000000      -0.374251514320435     
  0.295000000000000        1.67500000000000      -0.388004886490832     
  0.295000000000000        1.69000000000000      -0.401673791263683     
  0.295000000000000        1.70500000000000      -0.415255245859296     
  0.295000000000000        1.72000000000000      -0.428746267497980     
  0.295000000000000        1.73500000000000      -0.442143873400045     
  0.295000000000000        1.75000000000000      -0.455445080785798     
  0.310000000000000       0.250000000000000       0.860133932942298     
  0.310000000000000       0.265000000000000       0.851589987658972     
  0.310000000000000       0.280000000000000       0.842852728360887     
  0.310000000000000       0.295000000000000       0.833925137827735     
  0.310000000000000       0.310000000000000       0.824810198839207     