 variables= "x","y","fPC"
 zone i=         101  j=         101  datapacking=point
  -2.00000000000000       -2.00000000000000        1.45346707325429     
  -2.00000000000000       -1.96000000000000        1.35744396051112     
  -2.00000000000000       -1.92000000000000        1.26443992923781     
  -2.00000000000000       -1.88000000000000        1.17443639374215     
  -2.00000000000000       -1.84000000000000        1.08741392260335     
  -2.00000000000000       -1.80000000000000        1.00335223867207     
  -2.00000000000000       -1.76000000000000       0.922230219070377     
  -2.00000000000000       -1.72000000000000       0.844025895191799     
  -2.00000000000000       -1.68000000000000       0.768716452701296     
  -2.00000000000000       -1.64000000000000       0.696278231535254     
  -2.00000000000000       -1.60000000000000       0.626686725901495     
  -2.00000000000000       -1.56000000000000       0.559916584279282     
  -2.00000000000000       -1.52000000000000       0.495941609419310     
  -2.00000000000000       -1.48000000000000       0.434734758343712     
  -2.00000000000000       -1.44000000000000       0.376268142346049     
  -2.00000000000000       -1.40000000000000       0.320513026991325     
  -2.00000000000000       -1.36000000000000       0.267439832115975     
  -2.00000000000000       -1.32000000000000       0.217018131827870     
  -2.00000000000000       -1.28000000000000       0.169216654506317     
  -2.00000000000000       -1.24000000000000       0.124003282802056     
  -2.00000000000000       -1.20000000000000       8.134505363726444E-002
  -2.00000000000000       -1.16000000000000       4.120815820555306E-002
  -2.00000000000000       -1.12000000000000       3.557941971968808E-003
  -2.00000000000000       -1.08000000000000      -3.164109532700746E-002
  -2.00000000000000       -1.04000000000000      -6.442529968345727E-002
  -2.00000000000000       -1.00000000000000      -9.483186281802988E-002
  -2.00000000000000      -0.960000000000000      -0.122898822179937     
  -2.00000000000000      -0.920000000000000      -0.148665060946957     
  -2.00000000000000      -0.880000000000000      -0.172170308025433     
  -2.00000000000000      -0.840000000000000      -0.193455138050270     
  -2.00000000000000      -0.800000000000000      -0.212560971384944     
  -2.00000000000000      -0.760000000000000      -0.229530074121489     
  -2.00000000000000      -0.720000000000000      -0.244405558080509     
  -2.00000000000000      -0.680000000000000      -0.257231380811171     
  -2.00000000000000      -0.640000000000000      -0.268052345591206     
  -2.00000000000000      -0.600000000000000      -0.276914101426910     
  -2.00000000000000      -0.560000000000000      -0.283863143053145     
  -2.00000000000000      -0.520000000000000      -0.288946810933339     
  -2.00000000000000      -0.480000000000000      -0.292213291259482     
  -2.00000000000000      -0.440000000000000      -0.293711615952130     
  -2.00000000000000      -0.400000000000000      -0.293491662660405     
  -2.00000000000000      -0.360000000000000      -0.291604154761992     
  -2.00000000000000      -0.320000000000000      -0.288100661363142     
  -2.00000000000000      -0.280000000000000      -0.283033597298670     
  -2.00000000000000      -0.240000000000000      -0.276456223131959     
  -2.00000000000000      -0.200000000000000      -0.268422645154952     
  -2.00000000000000      -0.160000000000000      -0.258987815388159     
  -2.00000000000000      -0.120000000000000      -0.248207531580658     
  -2.00000000000000      -8.000000000000007E-002 -0.236138437210086     
  -2.00000000000000      -4.000000000000004E-002 -0.222838021482650     
  -2.00000000000000       0.000000000000000E+000 -0.208364619333118     
  -2.00000000000000       4.000000000000004E-002 -0.192777411424826     
  -2.00000000000000       8.000000000000007E-002 -0.176136424149673     
  -2.00000000000000       0.120000000000000      -0.158502529628124     
  -2.00000000000000       0.160000000000000      -0.139937445709208     
  -2.00000000000000       0.200000000000000      -0.120503735970518     
  -2.00000000000000       0.240000000000000      -0.100264809718214     
  -2.00000000000000       0.280000000000000      -7.928492198702056E-002
  -2.00000000000000       0.320000000000000      -5.762917354022532E-002
  -2.00000000000000       0.360000000000000      -3.536351086968244E-002
  -2.00000000000000       0.400000000000000      -1.255472619581010E-002
  -2.00000000000000       0.440000000000000       1.072954253240841E-002
  -2.00000000000000       0.480000000000000       3.442081163742413E-002
  -2.00000000000000       0.520000000000000       5.844975171312398E-002
  -2.00000000000000       0.560000000000000       8.274618762483107E-002
  -2.00000000000000       0.600000000000000       0.107239098509302     
  -2.00000000000000       0.640000000000000       0.131856617774728     
  -2.00000000000000       0.680000000000000       0.156526033100738     
  -2.00000000000000       0.720000000000000       0.181173786438393     
  -2.00000000000000       0.760000000000000       0.205725474010192     
  -2.00000000000000       0.800000000000000       0.230105846310067     
  -2.00000000000000       0.840000000000000       0.254238808103386     
  -2.00000000000000       0.880000000000000       0.278047418426952     
  -2.00000000000000       0.920000000000000       0.301453890589004     
  -2.00000000000000       0.960000000000000       0.324379592169215     
  -2.00000000000000        1.00000000000000       0.346745045018691     
  -2.00000000000000        1.04000000000000       0.368469925259979     
  -2.00000000000000        1.08000000000000       0.389473063287056     
  -2.00000000000000        1.12000000000000       0.409672443765336     
  -2.00000000000000        1.16000000000000       0.428985205631667     
  -2.00000000000000        1.20000000000000       0.447327642094336     
  -2.00000000000000        1.24000000000000       0.464615200633057     
  -2.00000000000000        1.28000000000000       0.480762482998989     
  -2.00000000000000        1.32000000000000       0.495683245214719     
  -2.00000000000000        1.36000000000000       0.509290397574274     
  -2.00000000000000        1.40000000000000       0.521496004643111     
  -2.00000000000000        1.44000000000000       0.532211285258125     
  -2.00000000000000        1.48000000000000       0.541346612527648     
  -2.00000000000000        1.52000000000000       0.548811513831443     
  -2.00000000000000        1.56000000000000       0.554514670820712     
  -2.00000000000000        1.60000000000000       0.558363919418087     
  -2.00000000000000        1.64000000000000       0.560266249817645     
  -2.00000000000000        1.68000000000000       0.560127806484884     
  -2.00000000000000        1.72000000000000       0.557853888156749     
  -2.00000000000000        1.76000000000000       0.553348947841615     
  -2.00000000000000        1.80000000000000       0.546516592819291     
  -2.00000000000000        1.84000000000000       0.537259584641027     
  -2.00000000000000        1.88000000000000       0.525479839129502     
  -2.00000000000000        1.92000000000000       0.511078426378830     
  -2.00000000000000        1.96000000000000       0.493955570754567     
  -2.00000000000000        2.00000000000000       0.474010650893698     
  -1.96000000000000       -2.00000000000000        1.29587284383780     
  -1.96000000000000       -1.96000000000000        1.20907961774627     
  -1.96000000000000       -1.92000000000000        1.12502997999929     
  -1.96000000000000       -1.88000000000000        1.04370931783498     
  -1.96000000000000       -1.84000000000000       0.965102172762886     
  -1.96000000000000       -1.80000000000000       0.889192240564005     
  -1.96000000000000       -1.76000000000000       0.815962371290757     
  -1.96000000000000       -1.72000000000000       0.745394569267001     
  -1.96000000000000       -1.68000000000000       0.677469993088028     
  -1.96000000000000       -1.64000000000000       0.612168955620570     
  -1.96000000000000       -1.60000000000000       0.549470924002789     
  -1.96000000000000       -1.56000000000000       0.489354519644284     
  -1.96000000000000       -1.52000000000000       0.431797518226093     
  -1.96000000000000       -1.48000000000000       0.376776849700680     
  -1.96000000000000       -1.44000000000000       0.324268598291953     
  -1.96000000000000       -1.40000000000000       0.274248002495250     
  -1.96000000000000       -1.36000000000000       0.226689455077347     
  -1.96000000000000       -1.32000000000000       0.181566503076450     
  -1.96000000000000       -1.28000000000000       0.138851847802209     
  -1.96000000000000       -1.24000000000000       9.851734483569953E-002
  -1.96000000000000       -1.20000000000000       6.053400402944144E-002
  -1.96000000000000       -1.16000000000000       2.487198950738156E-002
  -1.96000000000000       -1.12000000000000      -8.499380335093327E-003
  -1.96000000000000       -1.08000000000000      -3.961163283116395E-002
  -1.96000000000000       -1.04000000000000      -6.849714104257269E-002
  -1.96000000000000       -1.00000000000000      -9.518912375962957E-002
  -1.96000000000000      -0.960000000000000      -0.119721645501209     
  -1.96000000000000      -0.920000000000000      -0.142129616514748     
  -1.96000000000000      -0.880000000000000      -0.162448792776254     
  -1.96000000000000      -0.840000000000000      -0.180715775990292     
  -1.96000000000000      -0.800000000000000      -0.196968013589999     
  -1.96000000000000      -0.760000000000000      -0.211243798737070     
  -1.96000000000000      -0.720000000000000      -0.223582270321770     
  -1.96000000000000      -0.680000000000000      -0.234023412962928     
  -1.96000000000000      -0.640000000000000      -0.242608057007936     
  -1.96000000000000      -0.600000000000000      -0.249377878532751     
  -1.96000000000000      -0.560000000000000      -0.254375399341897     
  -1.96000000000000      -0.520000000000000      -0.257643986968461     
  -1.96000000000000      -0.480000000000000      -0.259227854674096     
  -1.96000000000000      -0.440000000000000      -0.259172061449019     
  -1.96000000000000      -0.400000000000000      -0.257522512012014     
  -1.96000000000000      -0.360000000000000      -0.254325956810425     
  -1.96000000000000      -0.320000000000000      -0.249629992020166     
  -1.96000000000000      -0.280000000000000      -0.243483059545714     
  -1.96000000000000      -0.240000000000000      -0.235934447020110     
  -1.96000000000000      -0.200000000000000      -0.227034287804960     
  -1.96000000000000      -0.160000000000000      -0.216833560990438     
  -1.96000000000000      -0.120000000000000      -0.205384091395278     
  -1.96000000000000      -8.000000000000007E-002 -0.192738549566782     
  -1.96000000000000      -4.000000000000004E-002 -0.178950451780816     
  -1.96000000000000       0.000000000000000E+000 -0.164074160041811     
  -1.96000000000000       4.000000000000004E-002 -0.148164882082764     
  -1.96000000000000       8.000000000000007E-002 -0.131278671365234     
  -1.96000000000000       0.120000000000000      -0.113472427079347     
  -1.96000000000000       0.160000000000000      -9.480389414379468E-002
  -1.96000000000000       0.200000000000000      -7.533166320583068E-002
  -1.96000000000000       0.240000000000000      -5.511517064127602E-002
  -1.96000000000000       0.280000000000000      -3.421469855451681E-002
  -1.96000000000000       0.320000000000000      -1.269137477850154E-002
  -1.96000000000000       0.360000000000000       9.392827125254582E-003
  -1.96000000000000       0.400000000000000       3.197508786667170E-002
  -1.96000000000000       0.440000000000000       5.499174242710533E-002
  -1.96000000000000       0.480000000000000       7.837828005934562E-002
  -1.96000000000000       0.520000000000000       0.102069344287618     
  -1.96000000000000       0.560000000000000       0.125998732907585     
  -1.96000000000000       0.600000000000000       0.150099397986340     
  -1.96000000000000       0.640000000000000       0.174303445862416     
  -1.96000000000000       0.680000000000000       0.198542137145779     
  -1.96000000000000       0.720000000000000       0.222745886717830     
  -1.96000000000000       0.760000000000000       0.246844263731405     
  -1.96000000000000       0.800000000000000       0.270765991610775     
  -1.96000000000000       0.840000000000000       0.294438948051648     
  -1.96000000000000       0.880000000000000       0.317790165021165     
  -1.96000000000000       0.920000000000000       0.340745828757904     
  -1.96000000000000       0.960000000000000       0.363231279771877     
  -1.96000000000000        1.00000000000000       0.385171012844529     
  -1.96000000000000        1.04000000000000       0.406488677028744     
  -1.96000000000000        1.08000000000000       0.427107075648841     
  -1.96000000000000        1.12000000000000       0.446948166300569     
  -1.96000000000000        1.16000000000000       0.465933060851119     
  -1.96000000000000        1.20000000000000       0.483982025439111     
  -1.96000000000000        1.24000000000000       0.501014480474606     
  -1.96000000000000        1.28000000000000       0.516949000639095     
  -1.96000000000000        1.32000000000000       0.531703314885504     
  -1.96000000000000        1.36000000000000       0.545194306438202     
  -1.96000000000000        1.40000000000000       0.557338012792984     
  -1.96000000000000        1.44000000000000       0.568049625717084     
  -1.96000000000000        1.48000000000000       0.577243491249171     
  -1.96000000000000        1.52000000000000       0.584833109699348     
  -1.96000000000000        1.56000000000000       0.590731135649156     
  -1.96000000000000        1.60000000000000       0.594849377951566     
  -1.96000000000000        1.64000000000000       0.597098799730991     
  -1.96000000000000        1.68000000000000       0.597389518383273     
  -1.96000000000000        1.72000000000000       0.595630805575691     
  -1.96000000000000        1.76000000000000       0.591731087246960     
  -1.96000000000000        1.80000000000000       0.585597943607231     
  -1.96000000000000        1.84000000000000       0.577138109138087     
  -1.96000000000000        1.88000000000000       0.566257472592551     
  -1.96000000000000        1.92000000000000       0.552861076995074     
  -1.96000000000000        1.96000000000000       0.536853119641550     
  -1.96000000000000        2.00000000000000       0.518136952099303     
  -1.92000000000000       -2.00000000000000        1.14589306104580     
  -1.92000000000000       -1.96000000000000        1.06805917303275     
  -1.92000000000000       -1.92000000000000       0.992697450583605     
  -1.92000000000000       -1.88000000000000       0.919797253866839     
  -1.92000000000000       -1.84000000000000       0.849347097322338     
  -1.92000000000000       -1.80000000000000       0.781334649661426     
  -1.92000000000000       -1.76000000000000       0.715746733866871     
  -1.92000000000000       -1.72000000000000       0.652569327192865     
  -1.92000000000000       -1.68000000000000       0.591787561165045     
  -1.92000000000000       -1.64000000000000       0.533385721580475     
  -1.92000000000000       -1.60000000000000       0.477347248507660     
  -1.92000000000000       -1.56000000000000       0.423654736286536     
  -1.92000000000000       -1.52000000000000       0.372289933528479     
  -1.92000000000000       -1.48000000000000       0.323233743116295     
  -1.92000000000000       -1.44000000000000       0.276466222204226     
  -1.92000000000000       -1.40000000000000       0.231966582217952     
  -1.92000000000000       -1.36000000000000       0.189713188854586     
  -1.92000000000000       -1.32000000000000       0.149683562082678     
  -1.92000000000000       -1.28000000000000       0.111854376142208     
  -1.92000000000000       -1.24000000000000       7.620145954459957E-002
  -1.92000000000000       -1.20000000000000       4.269979507270318E-002
  -1.92000000000000       -1.16000000000000       1.132351978081030E-002
  -1.92000000000000       -1.12000000000000      -1.795407500535666E-002
  -1.92000000000000       -1.08000000000000      -4.516054368863834E-002
  -1.92000000000000       -1.04000000000000      -7.032428640043915E-002
  -1.92000000000000       -1.00000000000000      -9.347454900072885E-002
  -1.92000000000000      -0.960000000000000      -0.114641423078045     
  -1.92000000000000      -0.920000000000000      -0.133855845949485     
  -1.92000000000000      -0.880000000000000      -0.151149600660717     
  -1.92000000000000      -0.840000000000000      -0.166555315985967     
  -1.92000000000000      -0.800000000000000      -0.180106466428034     
  -1.92000000000000      -0.760000000000000      -0.191837372218275     
  -1.92000000000000      -0.720000000000000      -0.201783199316614     
  -1.92000000000000      -0.680000000000000      -0.209979959411542     
  -1.92000000000000      -0.640000000000000      -0.216464509920114     
  -1.92000000000000      -0.600000000000000      -0.221274553987946     
  -1.92000000000000      -0.560000000000000      -0.224448640489224     
  -1.92000000000000      -0.520000000000000      -0.226026164026696     
  -1.92000000000000      -0.480000000000000      -0.226047364931678     
  -1.92000000000000      -0.440000000000000      -0.224553329264045     
  -1.92000000000000      -0.400000000000000      -0.221585988812243     
  -1.92000000000000      -0.360000000000000      -0.217188121093281     
  -1.92000000000000      -0.320000000000000      -0.211403349352730     
  -1.92000000000000      -0.280000000000000      -0.204276142564728     
  -1.92000000000000      -0.240000000000000      -0.195851815431980     
  -1.92000000000000      -0.200000000000000      -0.186176528385752     
  -1.92000000000000      -0.160000000000000      -0.175297287585879     
  -1.92000000000000      -0.120000000000000      -0.163261944920756     
  -1.92000000000000      -8.000000000000007E-002 -0.150119198007346     
  -1.92000000000000      -4.000000000000004E-002 -0.135918590191178     
  -1.92000000000000       0.000000000000000E+000 -0.120710510546343     
  -1.92000000000000       4.000000000000004E-002 -0.104546193875498     
  -1.92000000000000       8.000000000000007E-002 -8.747772070986445E-002
  -1.92000000000000       0.120000000000000      -6.955801730922991E-002
  -1.92000000000000       0.160000000000000      -5.084085566194656E-002
  -1.92000000000000       0.200000000000000      -3.138085348492981E-002
  -1.92000000000000       0.240000000000000      -1.123347422366183E-002
  -1.92000000000000       0.280000000000000       9.544972947810830E-003
  -1.92000000000000       0.320000000000000       3.089733312687765E-002
  -1.92000000000000       0.360000000000000       5.276560568236226E-002
  -1.92000000000000       0.400000000000000       7.509094425452441E-002
  -1.92000000000000       0.440000000000000       9.781365675505756E-002
  -1.92000000000000       0.480000000000000       0.120873205367091     
  -1.92000000000000       0.520000000000000       0.144208206545190     
  -1.92000000000000       0.560000000000000       0.167756431015352     
  -1.92000000000000       0.600000000000000       0.191454803775015     
  -1.92000000000000       0.640000000000000       0.215239404093046     
  -1.92000000000000       0.680000000000000       0.239045465509751     
  -1.92000000000000       0.720000000000000       0.262807375836871     
  -1.92000000000000       0.760000000000000       0.286458677157580     
  -1.92000000000000       0.800000000000000       0.309932065826488     
  -1.92000000000000       0.840000000000000       0.333159392469642     
  -1.92000000000000       0.880000000000000       0.356071661984522     
  -1.92000000000000       0.920000000000000       0.378599033540043     
  -1.92000000000000       0.960000000000000       0.400670820576557     
  -1.92000000000000        1.00000000000000       0.422215490805849     
  -1.92000000000000        1.04000000000000       0.443160666211140     
  -1.92000000000000        1.08000000000000       0.463433123047088     
  -1.92000000000000        1.12000000000000       0.482958791839782     
  -1.92000000000000        1.16000000000000       0.501662757386749     
  -1.92000000000000        1.20000000000000       0.519469258756953     
  -1.92000000000000        1.24000000000000       0.536301689290789     
  -1.92000000000000        1.28000000000000       0.552082596600087     
  -1.92000000000000        1.32000000000000       0.566733682568116     
  -1.92000000000000        1.36000000000000       0.580175803349580     
  -1.92000000000000        1.40000000000000       0.592328969370613     
  -1.92000000000000        1.44000000000000       0.603112345328789     
  -1.92000000000000        1.48000000000000       0.612444250193114     
  -1.92000000000000        1.52000000000000       0.620242157204032     
  -1.92000000000000        1.56000000000000       0.626422693873423     
  -1.92000000000000        1.60000000000000       0.630901641984595     
  -1.92000000000000        1.64000000000000       0.633593937592300     
  -1.92000000000000        1.68000000000000       0.634413671022719     
  -1.92000000000000        1.72000000000000       0.633274086873470     
  -1.92000000000000        1.76000000000000       0.630087584013609     
  -1.92000000000000        1.80000000000000       0.624765715583622     
  -1.92000000000000        1.84000000000000       0.617219188995433     
  -1.92000000000000        1.88000000000000       0.607357865932402     
  -1.92000000000000        1.92000000000000       0.595090762349323     
  -1.92000000000000        1.96000000000000       0.580326048472423     
  -1.92000000000000        2.00000000000000       0.562971048799368     
  -1.88000000000000       -2.00000000000000        1.00329638414607     
  -1.88000000000000       -1.96000000000000       0.934155086582158     
  -1.88000000000000       -1.92000000000000       0.867218602146211     
  -1.88000000000000       -1.88000000000000       0.802480263937025     
  -1.88000000000000       -1.84000000000000       0.739932559324830     
  -1.88000000000000       -1.80000000000000       0.679567129951296     
  -1.88000000000000       -1.76000000000000       0.621374771729521     
  -1.88000000000000       -1.72000000000000       0.565345434844041     
  -1.88000000000000       -1.68000000000000       0.511468223750832     
  -1.88000000000000       -1.64000000000000       0.459731397177293     
  -1.88000000000000       -1.60000000000000       0.410122368122268     
  -1.88000000000000       -1.56000000000000       0.362627703856035     
  -1.88000000000000       -1.52000000000000       0.317233125920307     
  -1.88000000000000       -1.48000000000000       0.273923510128228     
  -1.88000000000000       -1.44000000000000       0.232682886564381     
  -1.88000000000000       -1.40000000000000       0.193494439584783     
  -1.88000000000000       -1.36000000000000       0.156340507816885     
  -1.88000000000000       -1.32000000000000       0.121202584159579     
  -1.88000000000000       -1.28000000000000       8.806131578318341E-002
  -1.88000000000000       -1.24000000000000       5.689650412945591E-002
  -1.88000000000000       -1.20000000000000       2.768710491159212E-002
  -1.88000000000000       -1.16000000000000       4.112281142167815E-004
  -1.88000000000000       -1.12000000000000      -2.495386200660542E-002
  -1.88000000000000       -1.08000000000000      -4.843174692337646E-002
  -1.88000000000000       -1.04000000000000      -7.004685383716332E-002
  -1.88000000000000       -1.00000000000000      -8.982445567759756E-002
  -1.88000000000000      -0.960000000000000      -0.107790671102876     
  -1.88000000000000      -0.920000000000000      -0.123972464499759     
  -1.88000000000000      -0.880000000000000      -0.138397645983574     
  -1.88000000000000      -0.840000000000000      -0.151094871398211     
  -1.88000000000000      -0.800000000000000      -0.162093642316127     
  -1.88000000000000      -0.760000000000000      -0.171424306038342     
  -1.88000000000000      -0.720000000000000      -0.179118055594441     
  -1.88000000000000      -0.680000000000000      -0.185206929742577     
  -1.88000000000000      -0.640000000000000      -0.189723812969464     
  -1.88000000000000      -0.600000000000000      -0.192702435490381     
  -1.88000000000000      -0.560000000000000      -0.194177373249175     
  -1.88000000000000      -0.520000000000000      -0.194184047918255     
  -1.88000000000000      -0.480000000000000      -0.192758726898597     
  -1.88000000000000      -0.440000000000000      -0.189938523319741     
  -1.88000000000000      -0.400000000000000      -0.185761396039791     
  -1.88000000000000      -0.360000000000000      -0.180266149645415     
  -1.88000000000000      -0.320000000000000      -0.173492434451850     
  -1.88000000000000      -0.280000000000000      -0.165480746502894     
  -1.88000000000000      -0.240000000000000      -0.156272427570911     
  -1.88000000000000      -0.200000000000000      -0.145909665156831     
  -1.88000000000000      -0.160000000000000      -0.134435492490147     
  -1.88000000000000      -0.120000000000000      -0.121893788528918     
  -1.88000000000000      -8.000000000000007E-002 -0.108329277959769     
  -1.88000000000000      -4.000000000000004E-002 -9.378753119788642E-002
  -1.88000000000000       0.000000000000000E+000 -7.831496438702445E-002
  -1.88000000000000       4.000000000000004E-002 -6.195883939950145E-002
  -1.88000000000000       8.000000000000007E-002 -4.476726383620100E-002
  -1.88000000000000       0.120000000000000      -2.678919102657070E-002
  -1.88000000000000       0.160000000000000      -8.074420028623786E-003
  -1.88000000000000       0.200000000000000       1.132640437106252E-002
  -1.88000000000000       0.240000000000000       3.136179165734536E-002
  -1.88000000000000       0.280000000000000       5.197940558651706E-002
  -1.88000000000000       0.320000000000000       7.312606418630549E-002
  -1.88000000000000       0.360000000000000       9.474773975587328E-002
  -1.88000000000000       0.400000000000000       0.116789558865818     
  -1.88000000000000       0.440000000000000       0.139195802358173     
  -1.88000000000000       0.480000000000000       0.161909905346406     
  -1.88000000000000       0.520000000000000       0.184874457215421     
  -1.88000000000000       0.560000000000000       0.208031201621556     
  -1.88000000000000       0.600000000000000       0.231321036492584     
  -1.88000000000000       0.640000000000000       0.254684014027715     
  -1.88000000000000       0.680000000000000       0.278059340697591     
  -1.88000000000000       0.720000000000000       0.301385377244292     
  -1.88000000000000       0.760000000000000       0.324599638681331     
  -1.88000000000000       0.800000000000000       0.347638794293658     
  -1.88000000000000       0.840000000000000       0.370438667637658     
  -1.88000000000000       0.880000000000000       0.392934236541149     
  -1.88000000000000       0.920000000000000       0.415059633103385     
  -1.88000000000000       0.960000000000000       0.436748143695059     
  -1.88000000000000        1.00000000000000       0.457932208958292     
  -1.88000000000000        1.04000000000000       0.478543423806645     
  -1.88000000000000        1.08000000000000       0.498512537425115     
  -1.88000000000000        1.12000000000000       0.517769453270129     
  -1.88000000000000        1.16000000000000       0.536243229069555     
  -1.88000000000000        1.20000000000000       0.553862076822691     
  -1.88000000000000        1.24000000000000       0.570553362800275     
  -1.88000000000000        1.28000000000000       0.586243607544476     
  -1.88000000000000        1.32000000000000       0.600858485868900     
  -1.88000000000000        1.36000000000000       0.614322826858589     
  -1.88000000000000        1.40000000000000       0.626560613870018     
  -1.88000000000000        1.44000000000000       0.637494984531098     
  -1.88000000000000        1.48000000000000       0.647048230741177     
  -1.88000000000000        1.52000000000000       0.655141798671034     
  -1.88000000000000        1.56000000000000       0.661696288762886     
  -1.88000000000000        1.60000000000000       0.666631455730387     
  -1.88000000000000        1.64000000000000       0.669866208558622     
  -1.88000000000000        1.68000000000000       0.671318610504112     
  -1.88000000000000        1.72000000000000       0.670905879094815     
  -1.88000000000000        1.76000000000000       0.668544386130125     
  -1.88000000000000        1.80000000000000       0.664149657680868     
  -1.88000000000000        1.84000000000000       0.657636374089305     
  -1.88000000000000        1.88000000000000       0.648918369969135     
  -1.88000000000000        1.92000000000000       0.637908634205492     
  -1.88000000000000        1.96000000000000       0.624519309954941     
  -1.88000000000000        2.00000000000000       0.608661694645487     
  -1.84000000000000       -2.00000000000000       0.867855220352303     
  -1.84000000000000       -1.96000000000000       0.807143566552033     
  -1.84000000000000       -1.92000000000000       0.748373443788469     
  -1.84000000000000       -1.88000000000000       0.691542158090736     
  -1.84000000000000       -1.84000000000000       0.636646169759412     