 variables= "x","y","f"
 zone i=         101  j=         101  datapacking=point
  -2.00000000000000       -2.00000000000000       1.831563888873418E-002
  -2.00000000000000       -1.96000000000000       1.906311429161164E-002
  -2.00000000000000       -1.92000000000000       1.984109474437029E-002
  -2.00000000000000       -1.88000000000000       2.065082518171257E-002
  -2.00000000000000       -1.84000000000000       2.149360134508992E-002
  -2.00000000000000       -1.80000000000000       2.237077185616560E-002
  -2.00000000000000       -1.76000000000000       2.328374037489701E-002
  -2.00000000000000       -1.72000000000000       2.423396784569112E-002
  -2.00000000000000       -1.68000000000000       2.522297483522722E-002
  -2.00000000000000       -1.64000000000000       2.625234396568796E-002
  -2.00000000000000       -1.60000000000000       2.732372244729256E-002
  -2.00000000000000       -1.56000000000000       2.843882471418450E-002
  -2.00000000000000       -1.52000000000000       2.959943516789200E-002
  -2.00000000000000       -1.48000000000000       3.080741103275108E-002
  -2.00000000000000       -1.44000000000000       3.206468532786077E-002
  -2.00000000000000       -1.40000000000000       3.337326996032608E-002
  -2.00000000000000       -1.36000000000000       3.473525894473856E-002
  -2.00000000000000       -1.32000000000000       3.615283175404643E-002
  -2.00000000000000       -1.28000000000000       3.762825680717620E-002
  -2.00000000000000       -1.24000000000000       3.916389509898707E-002
  -2.00000000000000       -1.20000000000000       4.076220397836621E-002
  -2.00000000000000       -1.16000000000000       4.242574108051139E-002
  -2.00000000000000       -1.12000000000000       4.415716841969286E-002
  -2.00000000000000       -1.08000000000000       4.595925664904420E-002
  -2.00000000000000       -1.04000000000000       4.783488949419837E-002
  -2.00000000000000       -1.00000000000000       4.978706836786394E-002
  -2.00000000000000      -0.960000000000000       5.181891717272583E-002
  -2.00000000000000      -0.920000000000000       5.393368730035602E-002
  -2.00000000000000      -0.880000000000000       5.613476283413373E-002
  -2.00000000000000      -0.840000000000000       5.842566596450083E-002
  -2.00000000000000      -0.800000000000000       6.081006262521797E-002
  -2.00000000000000      -0.760000000000000       6.329176835964073E-002
  -2.00000000000000      -0.720000000000000       6.587475442640298E-002
  -2.00000000000000      -0.680000000000000       6.856315415427794E-002
  -2.00000000000000      -0.640000000000000       7.136126955638608E-002
  -2.00000000000000      -0.600000000000000       7.427357821433388E-002
  -2.00000000000000      -0.560000000000000       7.730474044329974E-002
  -2.00000000000000      -0.520000000000000       8.045960674953244E-002
  -2.00000000000000      -0.480000000000000       8.374322559219596E-002
  -2.00000000000000      -0.440000000000000       8.716085146198130E-002
  -2.00000000000000      -0.400000000000000       9.071795328941251E-002
  -2.00000000000000      -0.360000000000000       9.442022319630231E-002
  -2.00000000000000      -0.320000000000000       9.827358560436150E-002
  -2.00000000000000      -0.280000000000000       0.102284206715537     
  -2.00000000000000      -0.240000000000000       0.106458504379253     
  -2.00000000000000      -0.200000000000000       0.110803158362334     
  -2.00000000000000      -0.160000000000000       0.115325121038063     
  -2.00000000000000      -0.120000000000000       0.120031628511457     
  -2.00000000000000      -8.000000000000007E-002  0.124930212198582     
  -2.00000000000000      -4.000000000000004E-002  0.130028710878426     
  -2.00000000000000       0.000000000000000E+000  0.135335283236613     
  -2.00000000000000       4.000000000000004E-002  0.140858420921045     
  -2.00000000000000       8.000000000000007E-002  0.146606962130350     
  -2.00000000000000       0.120000000000000       0.152590105756884     
  -2.00000000000000       0.160000000000000       0.158817426106921     
  -2.00000000000000       0.200000000000000       0.165298888221587     
  -2.00000000000000       0.240000000000000       0.172044863823051     
  -2.00000000000000       0.280000000000000       0.179066147911493     
  -2.00000000000000       0.320000000000000       0.186373976039410     
  -2.00000000000000       0.360000000000000       0.193980042290892     
  -2.00000000000000       0.400000000000000       0.201896517994655     
  -2.00000000000000       0.440000000000000       0.210136071200765     
  -2.00000000000000       0.480000000000000       0.218711886952215     
  -2.00000000000000       0.520000000000000       0.227637688383813     
  -2.00000000000000       0.560000000000000       0.236927758682122     
  -2.00000000000000       0.600000000000000       0.246596963941606     
  -2.00000000000000       0.640000000000000       0.256660776953556     
  -2.00000000000000       0.680000000000000       0.267135301965850     
  -2.00000000000000       0.720000000000000       0.278037300453194     
  -2.00000000000000       0.760000000000000       0.289384217939051     
  -2.00000000000000       0.800000000000000       0.301194211912202     
  -2.00000000000000       0.840000000000000       0.313486180882605     
  -2.00000000000000       0.880000000000000       0.326279794623039     
  -2.00000000000000       0.920000000000000       0.339595525644939     
  -2.00000000000000       0.960000000000000       0.353454681958780     
  -2.00000000000000        1.00000000000000       0.367879441171442     
  -2.00000000000000        1.04000000000000       0.382892885975112     
  -2.00000000000000        1.08000000000000       0.398519041084514     
  -2.00000000000000        1.12000000000000       0.414782911681581     
  -2.00000000000000        1.16000000000000       0.431710523429080     
  -2.00000000000000        1.20000000000000       0.449328964117222     
  -2.00000000000000        1.24000000000000       0.467666427009909     
  -2.00000000000000        1.28000000000000       0.486752255959972     
  -2.00000000000000        1.32000000000000       0.506616992365590     
  -2.00000000000000        1.36000000000000       0.527292424043049     
  -2.00000000000000        1.40000000000000       0.548811636094026     
  -2.00000000000000        1.44000000000000       0.571209063848815     
  -2.00000000000000        1.48000000000000       0.594520547970194     
  -2.00000000000000        1.52000000000000       0.618783391806141     
  -2.00000000000000        1.56000000000000       0.644036421083141     
  -2.00000000000000        1.60000000000000       0.670320046035639     
  -2.00000000000000        1.64000000000000       0.697676326071031     
  -2.00000000000000        1.68000000000000       0.726149037073691     
  -2.00000000000000        1.72000000000000       0.755783741455726     
  -2.00000000000000        1.76000000000000       0.786627861066553     
  -2.00000000000000        1.80000000000000       0.818730753077982     
  -2.00000000000000        1.84000000000000       0.852143788966211     
  -2.00000000000000        1.88000000000000       0.886920436717157     
  -2.00000000000000        1.92000000000000       0.923116346386636     
  -2.00000000000000        1.96000000000000       0.960789439152323     
  -2.00000000000000        2.00000000000000        1.00000000000000     
  -1.96000000000000       -2.00000000000000       1.906311429161164E-002
  -1.96000000000000       -1.96000000000000       1.984109474437029E-002
  -1.96000000000000       -1.92000000000000       2.065082518171257E-002
  -1.96000000000000       -1.88000000000000       2.149360134508992E-002
  -1.96000000000000       -1.84000000000000       2.237077185616560E-002
  -1.96000000000000       -1.80000000000000       2.328374037489701E-002
  -1.96000000000000       -1.76000000000000       2.423396784569112E-002
  -1.96000000000000       -1.72000000000000       2.522297483522722E-002
  -1.96000000000000       -1.68000000000000       2.625234396568797E-002
  -1.96000000000000       -1.64000000000000       2.732372244729256E-002
  -1.96000000000000       -1.60000000000000       2.843882471418450E-002
  -1.96000000000000       -1.56000000000000       2.959943516789200E-002
  -1.96000000000000       -1.52000000000000       3.080741103275108E-002
  -1.96000000000000       -1.48000000000000       3.206468532786077E-002
  -1.96000000000000       -1.44000000000000       3.337326996032608E-002
  -1.96000000000000       -1.40000000000000       3.473525894473856E-002
  -1.96000000000000       -1.36000000000000       3.615283175404643E-002
  -1.96000000000000       -1.32000000000000       3.762825680717622E-002
  -1.96000000000000       -1.28000000000000       3.916389509898707E-002
  -1.96000000000000       -1.24000000000000       4.076220397836621E-002
  -1.96000000000000       -1.20000000000000       4.242574108051139E-002
  -1.96000000000000       -1.16000000000000       4.415716841969286E-002
  -1.96000000000000       -1.12000000000000       4.595925664904420E-002
  -1.96000000000000       -1.08000000000000       4.783488949419837E-002
  -1.96000000000000       -1.04000000000000       4.978706836786394E-002
  -1.96000000000000       -1.00000000000000       5.181891717272583E-002
  -1.96000000000000      -0.960000000000000       5.393368730035602E-002
  -1.96000000000000      -0.920000000000000       5.613476283413373E-002
  -1.96000000000000      -0.880000000000000       5.842566596450083E-002
  -1.96000000000000      -0.840000000000000       6.081006262521797E-002
  -1.96000000000000      -0.800000000000000       6.329176835964073E-002
  -1.96000000000000      -0.760000000000000       6.587475442640298E-002
  -1.96000000000000      -0.720000000000000       6.856315415427794E-002
  -1.96000000000000      -0.680000000000000       7.136126955638608E-002
  -1.96000000000000      -0.640000000000000       7.427357821433390E-002
  -1.96000000000000      -0.600000000000000       7.730474044329974E-002
  -1.96000000000000      -0.560000000000000       8.045960674953244E-002
  -1.96000000000000      -0.520000000000000       8.374322559219596E-002
  -1.96000000000000      -0.480000000000000       8.716085146198130E-002
  -1.96000000000000      -0.440000000000000       9.071795328941251E-002
  -1.96000000000000      -0.400000000000000       9.442022319630235E-002
  -1.96000000000000      -0.360000000000000       9.827358560436150E-002
  -1.96000000000000      -0.320000000000000       0.102284206715537     
  -1.96000000000000      -0.280000000000000       0.106458504379253     
  -1.96000000000000      -0.240000000000000       0.110803158362334     
  -1.96000000000000      -0.200000000000000       0.115325121038063     
  -1.96000000000000      -0.160000000000000       0.120031628511457     
  -1.96000000000000      -0.120000000000000       0.124930212198582     
  -1.96000000000000      -8.000000000000007E-002  0.130028710878426     
  -1.96000000000000      -4.000000000000004E-002  0.135335283236613     
  -1.96000000000000       0.000000000000000E+000  0.140858420921045     
  -1.96000000000000       4.000000000000004E-002  0.146606962130350     
  -1.96000000000000       8.000000000000007E-002  0.152590105756884     
  -1.96000000000000       0.120000000000000       0.158817426106921     
  -1.96000000000000       0.160000000000000       0.165298888221587     
  -1.96000000000000       0.200000000000000       0.172044863823051     
  -1.96000000000000       0.240000000000000       0.179066147911493     
  -1.96000000000000       0.280000000000000       0.186373976039410     
  -1.96000000000000       0.320000000000000       0.193980042290892     
  -1.96000000000000       0.360000000000000       0.201896517994655     
  -1.96000000000000       0.400000000000000       0.210136071200765     
  -1.96000000000000       0.440000000000000       0.218711886952215     
  -1.96000000000000       0.480000000000000       0.227637688383813     
  -1.96000000000000       0.520000000000000       0.236927758682122     
  -1.96000000000000       0.560000000000000       0.246596963941606     
  -1.96000000000000       0.600000000000000       0.256660776953556     
  -1.96000000000000       0.640000000000000       0.267135301965850     
  -1.96000000000000       0.680000000000000       0.278037300453194     
  -1.96000000000000       0.720000000000000       0.289384217939051     
  -1.96000000000000       0.760000000000000       0.301194211912202     
  -1.96000000000000       0.800000000000000       0.313486180882605     
  -1.96000000000000       0.840000000000000       0.326279794623039     
  -1.96000000000000       0.880000000000000       0.339595525644939     
  -1.96000000000000       0.920000000000000       0.353454681958780     
  -1.96000000000000       0.960000000000000       0.367879441171442     
  -1.96000000000000        1.00000000000000       0.382892885975112     
  -1.96000000000000        1.04000000000000       0.398519041084514     
  -1.96000000000000        1.08000000000000       0.414782911681581     
  -1.96000000000000        1.12000000000000       0.431710523429080     
  -1.96000000000000        1.16000000000000       0.449328964117222     
  -1.96000000000000        1.20000000000000       0.467666427009909     
  -1.96000000000000        1.24000000000000       0.486752255959972     
  -1.96000000000000        1.28000000000000       0.506616992365590     
  -1.96000000000000        1.32000000000000       0.527292424043049     
  -1.96000000000000        1.36000000000000       0.548811636094026     
  -1.96000000000000        1.40000000000000       0.571209063848815     
  -1.96000000000000        1.44000000000000       0.594520547970194     
  -1.96000000000000        1.48000000000000       0.618783391806141     
  -1.96000000000000        1.52000000000000       0.644036421083141     
  -1.96000000000000        1.56000000000000       0.670320046035639     
  -1.96000000000000        1.60000000000000       0.697676326071031     
  -1.96000000000000        1.64000000000000       0.726149037073691     
  -1.96000000000000        1.68000000000000       0.755783741455726     
  -1.96000000000000        1.72000000000000       0.786627861066554     
  -1.96000000000000        1.76000000000000       0.818730753077982     
  -1.96000000000000        1.80000000000000       0.852143788966211     
  -1.96000000000000        1.84000000000000       0.886920436717157     
  -1.96000000000000        1.88000000000000       0.923116346386636     
  -1.96000000000000        1.92000000000000       0.960789439152323     
  -1.96000000000000        1.96000000000000        1.00000000000000     
  -1.96000000000000        2.00000000000000        1.04081077419239     
  -1.92000000000000       -2.00000000000000       1.984109474437029E-002
  -1.92000000000000       -1.96000000000000       2.065082518171257E-002
  -1.92000000000000       -1.92000000000000       2.149360134508992E-002
  -1.92000000000000       -1.88000000000000       2.237077185616560E-002
  -1.92000000000000       -1.84000000000000       2.328374037489701E-002
  -1.92000000000000       -1.80000000000000       2.423396784569112E-002
  -1.92000000000000       -1.76000000000000       2.522297483522722E-002
  -1.92000000000000       -1.72000000000000       2.625234396568797E-002
  -1.92000000000000       -1.68000000000000       2.732372244729257E-002
  -1.92000000000000       -1.64000000000000       2.843882471418450E-002
  -1.92000000000000       -1.60000000000000       2.959943516789200E-002
  -1.92000000000000       -1.56000000000000       3.080741103275108E-002
  -1.92000000000000       -1.52000000000000       3.206468532786077E-002
  -1.92000000000000       -1.48000000000000       3.337326996032608E-002
  -1.92000000000000       -1.44000000000000       3.473525894473856E-002
  -1.92000000000000       -1.40000000000000       3.615283175404643E-002
  -1.92000000000000       -1.36000000000000       3.762825680717622E-002
  -1.92000000000000       -1.32000000000000       3.916389509898708E-002
  -1.92000000000000       -1.28000000000000       4.076220397836621E-002
  -1.92000000000000       -1.24000000000000       4.242574108051139E-002
  -1.92000000000000       -1.20000000000000       4.415716841969286E-002
  -1.92000000000000       -1.16000000000000       4.595925664904420E-002
  -1.92000000000000       -1.12000000000000       4.783488949419837E-002
  -1.92000000000000       -1.08000000000000       4.978706836786394E-002
  -1.92000000000000       -1.04000000000000       5.181891717272583E-002
  -1.92000000000000       -1.00000000000000       5.393368730035602E-002
  -1.92000000000000      -0.960000000000000       5.613476283413373E-002
  -1.92000000000000      -0.920000000000000       5.842566596450083E-002
  -1.92000000000000      -0.880000000000000       6.081006262521797E-002
  -1.92000000000000      -0.840000000000000       6.329176835964073E-002
  -1.92000000000000      -0.800000000000000       6.587475442640298E-002
  -1.92000000000000      -0.760000000000000       6.856315415427794E-002
  -1.92000000000000      -0.720000000000000       7.136126955638608E-002
  -1.92000000000000      -0.680000000000000       7.427357821433390E-002
  -1.92000000000000      -0.640000000000000       7.730474044329978E-002
  -1.92000000000000      -0.600000000000000       8.045960674953244E-002
  -1.92000000000000      -0.560000000000000       8.374322559219596E-002
  -1.92000000000000      -0.520000000000000       8.716085146198130E-002
  -1.92000000000000      -0.480000000000000       9.071795328941251E-002
  -1.92000000000000      -0.440000000000000       9.442022319630235E-002
  -1.92000000000000      -0.400000000000000       9.827358560436154E-002
  -1.92000000000000      -0.360000000000000       0.102284206715537     
  -1.92000000000000      -0.320000000000000       0.106458504379253     
  -1.92000000000000      -0.280000000000000       0.110803158362334     
  -1.92000000000000      -0.240000000000000       0.115325121038063     
  -1.92000000000000      -0.200000000000000       0.120031628511457     
  -1.92000000000000      -0.160000000000000       0.124930212198582     
  -1.92000000000000      -0.120000000000000       0.130028710878426     
  -1.92000000000000      -8.000000000000007E-002  0.135335283236613     
  -1.92000000000000      -4.000000000000004E-002  0.140858420921045     
  -1.92000000000000       0.000000000000000E+000  0.146606962130350     
  -1.92000000000000       4.000000000000004E-002  0.152590105756884     
  -1.92000000000000       8.000000000000007E-002  0.158817426106921     
  -1.92000000000000       0.120000000000000       0.165298888221587     
  -1.92000000000000       0.160000000000000       0.172044863823051     
  -1.92000000000000       0.200000000000000       0.179066147911493     
  -1.92000000000000       0.240000000000000       0.186373976039410     
  -1.92000000000000       0.280000000000000       0.193980042290892     
  -1.92000000000000       0.320000000000000       0.201896517994655     
  -1.92000000000000       0.360000000000000       0.210136071200765     
  -1.92000000000000       0.400000000000000       0.218711886952215     
  -1.92000000000000       0.440000000000000       0.227637688383813     
  -1.92000000000000       0.480000000000000       0.236927758682122     
  -1.92000000000000       0.520000000000000       0.246596963941606     
  -1.92000000000000       0.560000000000000       0.256660776953556     
  -1.92000000000000       0.600000000000000       0.267135301965850     
  -1.92000000000000       0.640000000000000       0.278037300453194     
  -1.92000000000000       0.680000000000000       0.289384217939051     
  -1.92000000000000       0.720000000000000       0.301194211912202     
  -1.92000000000000       0.760000000000000       0.313486180882605     
  -1.92000000000000       0.800000000000000       0.326279794623039     
  -1.92000000000000       0.840000000000000       0.339595525644939     
  -1.92000000000000       0.880000000000000       0.353454681958780     
  -1.92000000000000       0.920000000000000       0.367879441171442     
  -1.92000000000000       0.960000000000000       0.382892885975112     
  -1.92000000000000        1.00000000000000       0.398519041084514     
  -1.92000000000000        1.04000000000000       0.414782911681581     
  -1.92000000000000        1.08000000000000       0.431710523429080     
  -1.92000000000000        1.12000000000000       0.449328964117222     
  -1.92000000000000        1.16000000000000       0.467666427009909     
  -1.92000000000000        1.20000000000000       0.486752255959972     
  -1.92000000000000        1.24000000000000       0.506616992365590     
  -1.92000000000000        1.28000000000000       0.527292424043049     
  -1.92000000000000        1.32000000000000       0.548811636094026     
  -1.92000000000000        1.36000000000000       0.571209063848815     
  -1.92000000000000        1.40000000000000       0.594520547970194     
  -1.92000000000000        1.44000000000000       0.618783391806141     
  -1.92000000000000        1.48000000000000       0.644036421083141     
  -1.92000000000000        1.52000000000000       0.670320046035639     
  -1.92000000000000        1.56000000000000       0.697676326071031     
  -1.92000000000000        1.60000000000000       0.726149037073691     
  -1.92000000000000        1.64000000000000       0.755783741455726     
  -1.92000000000000        1.68000000000000       0.786627861066554     
  -1.92000000000000        1.72000000000000       0.818730753077982     
  -1.92000000000000        1.76000000000000       0.852143788966211     
  -1.92000000000000        1.80000000000000       0.886920436717157     
  -1.92000000000000        1.84000000000000       0.923116346386636     
  -1.92000000000000        1.88000000000000       0.960789439152323     
  -1.92000000000000        1.92000000000000        1.00000000000000     
  -1.92000000000000        1.96000000000000        1.04081077419239     
  -1.92000000000000        2.00000000000000        1.08328706767496     
  -1.88000000000000       -2.00000000000000       2.065082518171257E-002
  -1.88000000000000       -1.96000000000000       2.149360134508992E-002
  -1.88000000000000       -1.92000000000000       2.237077185616560E-002
  -1.88000000000000       -1.88000000000000       2.328374037489701E-002
  -1.88000000000000       -1.84000000000000       2.423396784569112E-002
  -1.88000000000000       -1.80000000000000       2.522297483522722E-002
  -1.88000000000000       -1.76000000000000       2.625234396568797E-002
  -1.88000000000000       -1.72000000000000       2.732372244729257E-002
  -1.88000000000000       -1.68000000000000       2.843882471418452E-002
  -1.88000000000000       -1.64000000000000       2.959943516789200E-002
  -1.88000000000000       -1.60000000000000       3.080741103275108E-002
  -1.88000000000000       -1.56000000000000       3.206468532786077E-002
  -1.88000000000000       -1.52000000000000       3.337326996032608E-002
  -1.88000000000000       -1.48000000000000       3.473525894473856E-002
  -1.88000000000000       -1.44000000000000       3.615283175404643E-002
  -1.88000000000000       -1.40000000000000       3.762825680717622E-002
  -1.88000000000000       -1.36000000000000       3.916389509898708E-002
  -1.88000000000000       -1.32000000000000       4.076220397836623E-002
  -1.88000000000000       -1.28000000000000       4.242574108051139E-002
  -1.88000000000000       -1.24000000000000       4.415716841969286E-002
  -1.88000000000000       -1.20000000000000       4.595925664904420E-002
  -1.88000000000000       -1.16000000000000       4.783488949419837E-002
  -1.88000000000000       -1.12000000000000       4.978706836786394E-002
  -1.88000000000000       -1.08000000000000       5.181891717272583E-002
  -1.88000000000000       -1.04000000000000       5.393368730035602E-002
  -1.88000000000000       -1.00000000000000       5.613476283413373E-002
  -1.88000000000000      -0.960000000000000       5.842566596450083E-002
  -1.88000000000000      -0.920000000000000       6.081006262521797E-002
  -1.88000000000000      -0.880000000000000       6.329176835964073E-002
  -1.88000000000000      -0.840000000000000       6.587475442640298E-002
  -1.88000000000000      -0.800000000000000       6.856315415427794E-002
  -1.88000000000000      -0.760000000000000       7.136126955638608E-002
  -1.88000000000000      -0.720000000000000       7.427357821433390E-002
  -1.88000000000000      -0.680000000000000       7.730474044329978E-002
  -1.88000000000000      -0.640000000000000       8.045960674953247E-002
  -1.88000000000000      -0.600000000000000       8.374322559219596E-002
  -1.88000000000000      -0.560000000000000       8.716085146198130E-002
  -1.88000000000000      -0.520000000000000       9.071795328941251E-002
  -1.88000000000000      -0.480000000000000       9.442022319630235E-002
  -1.88000000000000      -0.440000000000000       9.827358560436154E-002
  -1.88000000000000      -0.400000000000000       0.102284206715537     
  -1.88000000000000      -0.360000000000000       0.106458504379253     
  -1.88000000000000      -0.320000000000000       0.110803158362334     
  -1.88000000000000      -0.280000000000000       0.115325121038063     
  -1.88000000000000      -0.240000000000000       0.120031628511457     
  -1.88000000000000      -0.200000000000000       0.124930212198582     
  -1.88000000000000      -0.160000000000000       0.130028710878426     
  -1.88000000000000      -0.120000000000000       0.135335283236613     
  -1.88000000000000      -8.000000000000007E-002  0.140858420921045     
  -1.88000000000000      -4.000000000000004E-002  0.146606962130350     
  -1.88000000000000       0.000000000000000E+000  0.152590105756884     
  -1.88000000000000       4.000000000000004E-002  0.158817426106921     
  -1.88000000000000       8.000000000000007E-002  0.165298888221587     
  -1.88000000000000       0.120000000000000       0.172044863823051     
  -1.88000000000000       0.160000000000000       0.179066147911493     
  -1.88000000000000       0.200000000000000       0.186373976039410     
  -1.88000000000000       0.240000000000000       0.193980042290892     
  -1.88000000000000       0.280000000000000       0.201896517994655     
  -1.88000000000000       0.320000000000000       0.210136071200765     
  -1.88000000000000       0.360000000000000       0.218711886952215     
  -1.88000000000000       0.400000000000000       0.227637688383813     
  -1.88000000000000       0.440000000000000       0.236927758682122     
  -1.88000000000000       0.480000000000000       0.246596963941606     
  -1.88000000000000       0.520000000000000       0.256660776953556     
  -1.88000000000000       0.560000000000000       0.267135301965850     
  -1.88000000000000       0.600000000000000       0.278037300453194     
  -1.88000000000000       0.640000000000000       0.289384217939051     
  -1.88000000000000       0.680000000000000       0.301194211912202     
  -1.88000000000000       0.720000000000000       0.313486180882605     
  -1.88000000000000       0.760000000000000       0.326279794623039     
  -1.88000000000000       0.800000000000000       0.339595525644939     
  -1.88000000000000       0.840000000000000       0.353454681958780     
  -1.88000000000000       0.880000000000000       0.367879441171442     
  -1.88000000000000       0.920000000000000       0.382892885975112     
  -1.88000000000000       0.960000000000000       0.398519041084514     
  -1.88000000000000        1.00000000000000       0.414782911681581     
  -1.88000000000000        1.04000000000000       0.431710523429080     
  -1.88000000000000        1.08000000000000       0.449328964117222     
  -1.88000000000000        1.12000000000000       0.467666427009909     
  -1.88000000000000        1.16000000000000       0.486752255959972     
  -1.88000000000000        1.20000000000000       0.506616992365590     
  -1.88000000000000        1.24000000000000       0.527292424043049     
  -1.88000000000000        1.28000000000000       0.548811636094026     
  -1.88000000000000        1.32000000000000       0.571209063848815     
  -1.88000000000000        1.36000000000000       0.594520547970194     
  -1.88000000000000        1.40000000000000       0.618783391806141     
  -1.88000000000000        1.44000000000000       0.644036421083141     
  -1.88000000000000        1.48000000000000       0.670320046035639     
  -1.88000000000000        1.52000000000000       0.697676326071031     
  -1.88000000000000        1.56000000000000       0.726149037073691     
  -1.88000000000000        1.60000000000000       0.755783741455726     
  -1.88000000000000        1.64000000000000       0.786627861066554     
  -1.88000000000000        1.68000000000000       0.818730753077982     
  -1.88000000000000        1.72000000000000       0.852143788966212     
  -1.88000000000000        1.76000000000000       0.886920436717157     
  -1.88000000000000        1.80000000000000       0.923116346386636     
  -1.88000000000000        1.84000000000000       0.960789439152323     
  -1.88000000000000        1.88000000000000        1.00000000000000     
  -1.88000000000000        1.92000000000000        1.04081077419239     
  -1.88000000000000        1.96000000000000        1.08328706767496     
  -1.88000000000000        2.00000000000000        1.12749685157938     
  -1.84000000000000       -2.00000000000000       2.149360134508992E-002
  -1.84000000000000       -1.96000000000000       2.237077185616560E-002
  -1.84000000000000       -1.92000000000000       2.328374037489701E-002
  -1.84000000000000       -1.88000000000000       2.423396784569112E-002
  -1.84000000000000       -1.84000000000000       2.522297483522721E-002