 variables= "x","y","fpcb"
 zone i=           7  datapacking=point
  0.000000000000000E+000  0.000000000000000E+000  0.000000000000000E+000
   1.27993835285791       0.419585703389310       0.000000000000000E+000
 -7.610297302857294E-002   1.31025116110095       0.000000000000000E+000
  -1.72933383399000       -1.27540147212530       0.000000000000000E+000
   1.86242488890310        1.90787342716679       0.000000000000000E+000
   1.88590700816387       -1.96045483874190       0.000000000000000E+000
  0.748867689539656       -1.93179119114887       0.000000000000000E+000
