 variables= "x","y","f"
 zone i=         156  datapacking=point
  0.000000000000000E+000  0.000000000000000E+000   1.00000000000000     
   1.36126642102137        1.54129610187879        9.84933009698840     
 -0.104352724452438       -1.98187003029947        398.328645953088     
  -1.49260343977834       0.528582591029309        294.969152116602     
   1.81398777298512       0.614880464491736        716.584200327860     
  -1.03477200872854        1.20505768326901        5.94406896631032     
  0.950485874153832      -0.413698853362477        173.483553879687     
 -0.456640332561909       -1.40026470992110        260.940751900218     
  -1.66316019831372        1.75102056550701        110.131422691350     
  0.357456330959813      -0.779173603735733        82.6684445258957     
 -0.595081766260341       -1.02530332576766        192.825793898331     
  0.642572922841528       9.064040598278877E-002   10.5128762063742     
  -1.99815272769272       -1.16147202703448        2665.44953033133     
  -1.95242556551777      -0.462363294860439        1835.70555736401     
  -1.99736989166113       -1.85655680361878        3426.60643847245     
  0.127987638532892        1.99829497985054        393.558773069758     
   1.99374496866719        1.99855000975411        391.630496037002     
  -1.37854311759756      -0.877660586739389        777.409043731883     
 -0.533813537529276        1.99063893913719        293.287708270717     
  0.806729612236168        1.96593511006314        172.992057399573     
   1.58544773617771       -1.98874401281980        2027.49300283642     
   1.44671359704673       -1.44264706146174        1250.26558878001     
   1.04635533231389       -1.91354949469317        905.054605597760     
   1.51857440418179      -0.903733353774681        1030.55153437844     
  -1.99677367697594        1.07357994695397        857.843544157493     
  -1.44809339733332       -1.76025503892516        1493.81512315780     
  0.995421817649302       -1.09952040148276        436.970964333617     
 -4.674153249300983E-002  0.834332656607062        70.3426782112105     
  -1.99315453047208       0.216577726350781        1419.77812150478     
   1.54772140433421      -0.364928395236073        762.264219672399     
   1.95433226907075       -1.86568886762460        3232.95091422769     
   1.97116184131789       -1.46624182497517        2865.03473916541     
   1.99693053186493      -0.986286961021111        2475.07988438249     
   1.95329208956671      -0.531080713093521        1890.05474902204     
   1.99423073983299      -0.121755498293552        1680.93228915538     
  -1.60485124944736        1.06778272406539        234.120721893507     
  -1.93565360417135        1.46285016461972        530.240134849415     
   1.54043584883247        1.94639537537178        18.4863247631568     
   1.94999285454975        1.56963158672638        499.460176840534     
  -1.90783123988535       0.678428809517135        885.439284448126     
  -1.38500597443487        1.42589704162234        29.9285649142762     
   1.62904324743128       0.976334635693885        281.778628531411     
  -1.68920784979485      -0.145433168909866        906.545766888842     
  -1.97149542783808        1.97837035438581        373.037950920443     
 -0.965017035414828       -1.92681252004771        820.717932335434     
  -1.66925264332199       -1.37243246215450        1736.71730365992     
  -1.54731753066214      -0.483501091132132        834.600314928880     
  -1.73147336519152      -0.797481006005589        1448.02856434610     
 -0.610803331980993       -1.97007238271024        551.631329130355     
  -1.32732347774275       3.594894553735228E-002   303.268345721893     
  0.259815519653351       -1.76650776716800        336.907827516167     
   1.98811556458771       0.978141227065488        885.718952583019     
  -1.19399798941471      -0.419001914659609        345.080759477561     
 -0.915740538230160       -1.47058964894188        536.896847258945     
 -0.194146915391368        1.61326648044108        249.669158281486     
 -0.981043952343194      -9.519988249560551E-002   115.786277958100     
   1.38537201246752       0.414226762430717        226.659695671003     
  -1.70114356042874       -1.96667523805462        2369.80504942514     
   1.08931677017737       0.532223544354545        42.8302750713338     
   1.19684578881700       0.993451987106261        19.3097819573442     
   1.04407996453151        1.36730016784675        7.68577156316899     
  -1.36706280728432        1.96296119606505        6.48847631088490     
  0.522877683796554        1.22630768553852        91.0307470766755     
  0.847764425162181       0.785442688254045       0.468573972821055     
  0.875523836006055        1.10860353390985        11.7161044744641     
  -1.92532481477055       -1.55639898463434        2778.76350520000     
 -0.958461341813561        1.98029258585262        116.544462971893     
   1.47479190717658       0.708186011048850        215.383031893880     
   1.74630192724727       0.198179705993091        813.599867590696     
   1.70506946054442       -1.68320830858175        2107.73876465676     
  0.817892155232930        1.64219306564225        94.7538412682269     
   1.73219120708840        1.35446034557052        271.476273879101     
   1.75524092271189       -1.07098390206632        1724.36004983293     
   1.20179696677650        1.98015048518803        28.7525869951334     
  0.494340191993617        1.98791259597727        304.248994217632     
  0.688712466120281       -1.93646656526965        581.288430021202     
   1.75625072873963      -0.696273358204647        1429.93358795678     
   1.36034440619956       -1.69919389999693        1260.18872580526     
 -0.133108651558194        1.98935367572205        390.018693253514     
   1.74597184471139        1.77958743769787        161.549493011883     
   1.72006094801919       -1.35647279498958        1862.51215133411     
   1.24498140552553      -0.721803800066665        516.159588697368     
  -1.30149012934179       -1.96985726129389        1347.59140578097     
 -0.233856082873531       0.495192523178077        20.9267655202378     
   1.93177720795415       0.388127482181553        1118.85817752102     
 -0.743828908391679        1.82558888683325        164.917561926562     
  -1.97969248585731      -7.121591438271158E-002   1601.20638901902     
  2.602441262173150E-002  0.321436957468901        11.2373061519680     
  -1.34587538850468       -1.48471859587307        1091.93009678456     
 -0.538696383397943       0.850577316978602        33.7705559004776     
   1.32612237318665       -1.99282003049784        1407.42199197983     
  0.397163569829404       -1.99309477069547        462.971960177319     
  -1.97903858575042       0.454367364757808        1207.57580708169     
  -1.83534525670977       0.908630662909250        613.131066463189     
  -1.78709071322474        1.23246246529702        392.410480901651     
  0.158650209132658       -1.98671568164955        405.476224352176     
   1.99398011149046       0.135921598933334        1475.57494269932     
 -0.422372504585031      -0.596307677558247        62.0401147521351     
 -0.841859509536568       0.555478839559427        5.74095961645414     
 -0.157093951210229      -0.611251473933960        41.7795607958291     
 -0.239479856608928      -0.833202987702884        80.8448798785927     
 -0.201422605400834      -0.382727204731638        19.3615588743682     
 -0.660263078032052      -0.531219225356819        96.2975884962980     
  0.719911796197481       -1.16086207479005        282.027907428153     
 -0.566809201114425      -0.790213930553921        125.995137497817     
   1.82014522983068      -0.319658517676977        1320.24159685145     
 -0.435175963386207      -0.365578003981613        32.8573599014705     
  -1.99045044038362      -0.845219856660931        2319.77615283916     
  -1.77368737663752       0.308801272151629        812.644227346637     
 -0.913247055076469       0.788997591298249        3.86321767556836     
  -1.76391908063086        1.97745956670008        136.223725816714     
  0.314245190950502        1.88031695728610        317.868327722309     
 -0.340588578484193        1.90072698517826        320.322011944386     
   1.76591901278929        1.99123503675235        127.652489092353     
  0.983144942064058        1.85390105286419        78.7352180303112     
  0.664135934386440        1.81015858241608        187.551368736991     
 -7.315528601652632E-003   1.36075575198323        186.165741814231     
   1.28799408335421        1.34249671178380        10.0958646271140     
  0.219235458943728        1.36161289546837        173.150614362782     
 -0.296942813140596       -1.86984866379591        385.067740881618     
 -0.225572974611583        1.35835823786748        172.451135242746     
  -1.14379875080569       -1.80469155538986        973.652313145459     
  0.430334962074718        1.40885152003380        150.059715331548     
  4.088317792399865E-002   1.80186706012165        324.990334223752     
   1.98374525649536      -0.769435371708718        2214.36972305874     
  0.808201972905998        1.40725540710001        56.8981856015144     
   1.52149810873746        1.31784027047444        99.6960367770234     
 -0.472005451034417        1.35069693141776        129.384397332192     
 -0.745651998140233        1.37176415765811        69.5949223850816     
 -0.775201624375577       -1.84212279020116        600.005727514781     
   1.98627931704518        1.32955740738812        685.186568538416     
   1.14047545321947        1.56434093821660        6.97121778161991     
  -1.98983016028987        1.75899563752374        493.127611623750     
  -1.56952018675873        1.99393704438965        28.6413813133620     
 -0.183782220751964       -1.41771901554671        212.085090686070     
  5.029437794593417E-003  -1.36801107661160        188.142317891784     
 -0.130404995320001       -1.23053485790894        156.913500634001     
 -0.314549517053130       -1.55558794038287        275.474773814223     
 -0.102422805412579       -1.60651261886120        262.685222390116     
  -1.46609811184035        1.78917458177542        19.0610217454426     
  0.168068763852298       -1.46585643330637        223.926649209323     
 -0.369857609636418       -1.22675951122755        187.804505314197     
  0.154573471768752       -1.25042396167965        163.103107237331     
  -1.99503628943741      -0.263386481980720        1809.74723096014     
  0.866718907757333       -1.84858363223414        675.906123054341     
   1.77636636582363       -1.94072139134750        2597.72702371930     
 -0.244870096249339       -1.05924863358848        126.812803435054     
  -1.83450283269801        1.63088442749246        308.889056555843     
   1.91178955876854       -1.67676872585912        2843.54242564584     
 -3.783234708556460E-004  -1.06954367293485        115.393154238037     
  -1.50204602603788       -1.98478077711544        1804.80305866794     
  0.347012734399492       -1.32285622394567        208.730394110043     
  -1.56931334253405        1.54462193461078        90.8962511479247     
 -0.546522426726970       -1.56986767206128        351.541299263522     
 -0.581955448007131       -1.24363741404003        252.872936616713     
  -1.12322102884851       0.967813050695680        13.1406418780017     
