 variables= "x","y","fPC"
 zone i=         101  j=         101  datapacking=point
   149.250000000000        39.2500000000000        19.2051901548693     
   149.250000000000        39.2650000000000        19.1977238260260     
   149.250000000000        39.2800000000000        19.1902690648840     
   149.250000000000        39.2950000000000        19.1828257501038     
   149.250000000000        39.3100000000000        19.1753937606263     
   149.250000000000        39.3250000000000        19.1679729757052     
   149.250000000000        39.3400000000000        19.1605632749506     
   149.250000000000        39.3550000000000        19.1531645383402     
   149.250000000000        39.3700000000000        19.1457766462754     
   149.250000000000        39.3850000000000        19.1383994794342     
   149.250000000000        39.4000000000000        19.1310329189491     
   149.250000000000        39.4150000000000        19.1236768463277     
   149.250000000000        39.4300000000000        19.1163311435485     
   149.250000000000        39.4450000000000        19.1089956928845     
   149.250000000000        39.4600000000000        19.1016703772166     
   149.250000000000        39.4750000000000        19.0943550797565     
   149.250000000000        39.4900000000000        19.0870496841999     
   149.250000000000        39.5050000000000        19.0797540747208     
   149.250000000000        39.5200000000000        19.0724681360571     
   149.250000000000        39.5350000000000        19.0651917532214     
   149.250000000000        39.5500000000000        19.0579248120102     
   149.250000000000        39.5650000000000        19.0506671984676     
   149.250000000000        39.5800000000000        19.0434187993669     
   149.250000000000        39.5950000000000        19.0361795019726     
   149.250000000000        39.6100000000000        19.0289491940694     
   149.250000000000        39.6250000000000        19.0217277639131     
   149.250000000000        39.6400000000000        19.0145151005163     
   149.250000000000        39.6550000000000        19.0073110933972     
   149.250000000000        39.6700000000000        19.0001156326143     
   149.250000000000        39.6850000000000        18.9929286089209     
   149.250000000000        39.7000000000000        18.9857499136360     
   149.250000000000        39.7150000000000        18.9785794387681     
   149.250000000000        39.7300000000000        18.9714170767820     
   149.250000000000        39.7450000000000        18.9642627210706     
   149.250000000000        39.7600000000000        18.9571162655120     
   149.250000000000        39.7750000000000        18.9499776047323     
   149.250000000000        39.7900000000000        18.9428466339741     
   149.250000000000        39.8050000000000        18.9357232492312     
   149.250000000000        39.8200000000000        18.9286073471721     
   149.250000000000        39.8350000000000        18.9214988252752     
   149.250000000000        39.8500000000000        18.9143975816169     
   149.250000000000        39.8650000000000        18.9073035151832     
   149.250000000000        39.8800000000000        18.9002165254751     
   149.250000000000        39.8950000000000        18.8931365130502     
   149.250000000000        39.9100000000000        18.8860633789955     
   149.250000000000        39.9250000000000        18.8789970253001     
   149.250000000000        39.9400000000000        18.8719373548156     
   149.250000000000        39.9550000000000        18.8648842710936     
   149.250000000000        39.9700000000000        18.8578376785590     
   149.250000000000        39.9850000000000        18.8507974824206     
   149.250000000000        40.0000000000000        18.8437635887749     
   149.250000000000        40.0150000000000        18.8367359046188     
   149.250000000000        40.0300000000000        18.8297143377840     
   149.250000000000        40.0450000000000        18.8226987969501     
   149.250000000000        40.0600000000000        18.8156891917097     
   149.250000000000        40.0750000000000        18.8086854325884     
   149.250000000000        40.0900000000000        18.8016874309469     
   149.250000000000        40.1050000000000        18.7946950991445     
   149.250000000000        40.1200000000000        18.7877083504936     
   149.250000000000        40.1350000000000        18.7807270991270     
   149.250000000000        40.1500000000000        18.7737512603544     
   149.250000000000        40.1650000000000        18.7667807502403     
   149.250000000000        40.1800000000000        18.7598154859206     
   149.250000000000        40.1950000000000        18.7528553855846     
   149.250000000000        40.2100000000000        18.7459003683725     
   149.250000000000        40.2250000000000        18.7389503543618     
   149.250000000000        40.2400000000000        18.7320052648429     
   149.250000000000        40.2550000000000        18.7250650218757     
   149.250000000000        40.2700000000000        18.7181295489354     
   149.250000000000        40.2850000000000        18.7111987702010     
   149.250000000000        40.3000000000000        18.7042726111504     
   149.250000000000        40.3150000000000        18.6973509982672     
   149.250000000000        40.3300000000000        18.6904338591230     
   149.250000000000        40.3450000000000        18.6835211224588     
   149.250000000000        40.3600000000000        18.6766127180344     
   149.250000000000        40.3750000000000        18.6697085768556     
   149.250000000000        40.3900000000000        18.6628086309556     
   149.250000000000        40.4050000000000        18.6559128136651     
   149.250000000000        40.4200000000000        18.6490210592947     
   149.250000000000        40.4350000000000        18.6421333034687     
   149.250000000000        40.4500000000000        18.6352494829025     
   149.250000000000        40.4650000000000        18.6283695356706     
   149.250000000000        40.4800000000000        18.6214934009058     
   149.250000000000        40.4950000000000        18.6146210190309     
   149.250000000000        40.5100000000000        18.6077523315780     
   149.250000000000        40.5250000000000        18.6008872815546     
   149.250000000000        40.5400000000000        18.5940258129958     
   149.250000000000        40.5550000000000        18.5871678714175     
   149.250000000000        40.5700000000000        18.5803134033740     
   149.250000000000        40.5850000000000        18.5734623569551     
   149.250000000000        40.6000000000000        18.5666146812837     
   149.250000000000        40.6150000000000        18.5597703270996     
   149.250000000000        40.6300000000000        18.5529292461488     
   149.250000000000        40.6450000000000        18.5460913918414     
   149.250000000000        40.6600000000000        18.5392567186427     
   149.250000000000        40.6750000000000        18.5324251825932     
   149.250000000000        40.6900000000000        18.5255967409139     
   149.250000000000        40.7050000000000        18.5187713523410     
   149.250000000000        40.7200000000000        18.5119489769277     
   149.250000000000        40.7350000000000        18.5051295762769     
   149.250000000000        40.7500000000000        18.4983131131667     
   149.265000000000        39.2500000000000        19.2032816279607     
   149.265000000000        39.2650000000000        19.1958161435650     
   149.265000000000        39.2800000000000        19.1883622124278     
   149.265000000000        39.2950000000000        19.1809197130933     
   149.265000000000        39.3100000000000        19.1734885243131     
   149.265000000000        39.3250000000000        19.1660685252536     
   149.265000000000        39.3400000000000        19.1586595954814     
   149.265000000000        39.3550000000000        19.1512616147993     
   149.265000000000        39.3700000000000        19.1438744633979     
   149.265000000000        39.3850000000000        19.1364980219405     
   149.265000000000        39.4000000000000        19.1291321713779     
   149.265000000000        39.4150000000000        19.1217767930866     
   149.265000000000        39.4300000000000        19.1144317688559     
   149.265000000000        39.4450000000000        19.1070969809298     
   149.265000000000        39.4600000000000        19.0997723119344     
   149.265000000000        39.4750000000000        19.0924576449652     
   149.265000000000        39.4900000000000        19.0851528636231     
   149.265000000000        39.5050000000000        19.0778578518493     
   149.265000000000        39.5200000000000        19.0705724942218     
   149.265000000000        39.5350000000000        19.0632966756148     
   149.265000000000        39.5500000000000        19.0560302816793     
   149.265000000000        39.5650000000000        19.0487731982848     
   149.265000000000        39.5800000000000        19.0415253120009     
   149.265000000000        39.5950000000000        19.0342865099756     
   149.265000000000        39.6100000000000        19.0270566796808     
   149.265000000000        39.6250000000000        19.0198357093723     
   149.265000000000        39.6400000000000        19.0126234877280     
   149.265000000000        39.6550000000000        19.0054199041861     
   149.265000000000        39.6700000000000        18.9982248485649     
   149.265000000000        39.6850000000000        18.9910382114140     
   149.265000000000        39.7000000000000        18.9838598838633     
   149.265000000000        39.7150000000000        18.9766897577028     
   149.265000000000        39.7300000000000        18.9695277252886     
   149.265000000000        39.7450000000000        18.9623736797294     
   149.265000000000        39.7600000000000        18.9552275146125     
   149.265000000000        39.7750000000000        18.9480891244984     
   149.265000000000        39.7900000000000        18.9409584042951     
   149.265000000000        39.8050000000000        18.9338352499308     
   149.265000000000        39.8200000000000        18.9267195577249     
   149.265000000000        39.8350000000000        18.9196112249447     
   149.265000000000        39.8500000000000        18.9125101494337     
   149.265000000000        39.8650000000000        18.9054162299963     
   149.265000000000        39.8800000000000        18.8983293658421     
   149.265000000000        39.8950000000000        18.8912494573178     
   149.265000000000        39.9100000000000        18.8841764053286     
   149.265000000000        39.9250000000000        18.8771101115290     
   149.265000000000        39.9400000000000        18.8700504785156     
   149.265000000000        39.9550000000000        18.8629974096511     
   149.265000000000        39.9700000000000        18.8559508090693     
   149.265000000000        39.9850000000000        18.8489105817316     
   149.265000000000        40.0000000000000        18.8418766334871     
   149.265000000000        40.0150000000000        18.8348488710853     
   149.265000000000        40.0300000000000        18.8278272020088     
   149.265000000000        40.0450000000000        18.8208115347770     
   149.265000000000        40.0600000000000        18.8138017785750     
   149.265000000000        40.0750000000000        18.8067978437539     
   149.265000000000        40.0900000000000        18.7997996414124     
   149.265000000000        40.1050000000000        18.7928070835897     
   149.265000000000        40.1200000000000        18.7858200832925     
   149.265000000000        40.1350000000000        18.7788385544063     
   149.265000000000        40.1500000000000        18.7718624118770     
   149.265000000000        40.1650000000000        18.7648915715654     
   149.265000000000        40.1800000000000        18.7579259502727     
   149.265000000000        40.1950000000000        18.7509654658388     
   149.265000000000        40.2100000000000        18.7440100371277     
   149.265000000000        40.2250000000000        18.7370595839839     
   149.265000000000        40.2400000000000        18.7301140272612     
   149.265000000000        40.2550000000000        18.7231732888304     
   149.265000000000        40.2700000000000        18.7162372917737     
   149.265000000000        40.2850000000000        18.7093059599356     
   149.265000000000        40.3000000000000        18.7023792185319     
   149.265000000000        40.3150000000000        18.6954569936388     
   149.265000000000        40.3300000000000        18.6885392125805     
   149.265000000000        40.3450000000000        18.6816258037343     
   149.265000000000        40.3600000000000        18.6747166964960     
   149.265000000000        40.3750000000000        18.6678118215368     
   149.265000000000        40.3900000000000        18.6609111106281     
   149.265000000000        40.4050000000000        18.6540144966057     
   149.265000000000        40.4200000000000        18.6471219135765     
   149.265000000000        40.4350000000000        18.6402332967282     
   149.265000000000        40.4500000000000        18.6333485824707     
   149.265000000000        40.4650000000000        18.6264677085292     
   149.265000000000        40.4800000000000        18.6195906136145     
   149.265000000000        40.4950000000000        18.6127172377419     
   149.265000000000        40.5100000000000        18.6058475222399     
   149.265000000000        40.5250000000000        18.5989814096356     
   149.265000000000        40.5400000000000        18.5921188436005     
   149.265000000000        40.5550000000000        18.5852597692574     
   149.265000000000        40.5700000000000        18.5784041328116     
   149.265000000000        40.5850000000000        18.5715518819161     
   149.265000000000        40.6000000000000        18.5647029654174     
   149.265000000000        40.6150000000000        18.5578573335606     
   149.265000000000        40.6300000000000        18.5510149377860     
   149.265000000000        40.6450000000000        18.5441757310091     
   149.265000000000        40.6600000000000        18.5373396673749     
   149.265000000000        40.6750000000000        18.5305067024583     
   149.265000000000        40.6900000000000        18.5236767931019     
   149.265000000000        40.7050000000000        18.5168498976491     
   149.265000000000        40.7200000000000        18.5100259758037     
   149.265000000000        40.7350000000000        18.5032049885867     
   149.265000000000        40.7500000000000        18.4963868984996     
   149.280000000000        39.2500000000000        19.2013729451501     
   149.280000000000        39.2650000000000        19.1939083213983     
   149.280000000000        39.2800000000000        19.1864552363968     
   149.280000000000        39.2950000000000        19.1790135686460     
   149.280000000000        39.3100000000000        19.1715831968031     
   149.280000000000        39.3250000000000        19.1641639998379     
   149.280000000000        39.3400000000000        19.1567558572733     
   149.280000000000        39.3550000000000        19.1493586487377     
   149.280000000000        39.3700000000000        19.1419722543706     
   149.280000000000        39.3850000000000        19.1345965545661     
   149.280000000000        39.4000000000000        19.1272314302532     
   149.280000000000        39.4150000000000        19.1198767626702     
   149.280000000000        39.4300000000000        19.1125324334462     
   149.280000000000        39.4450000000000        19.1051983246361     
   149.280000000000        39.4600000000000        19.0978743187716     
   149.280000000000        39.4750000000000        19.0905602988314     
   149.280000000000        39.4900000000000        19.0832561481766     
   149.280000000000        39.5050000000000        19.0759617506392     
   149.280000000000        39.5200000000000        19.0686769906661     
   149.280000000000        39.5350000000000        19.0614017529206     
   149.280000000000        39.5500000000000        19.0541359229082     
   149.280000000000        39.5650000000000        19.0468793863383     
   149.280000000000        39.5800000000000        19.0396320296204     
   149.280000000000        39.5950000000000        19.0323937396552     
   149.280000000000        39.6100000000000        19.0251644038417     
   149.280000000000        39.6250000000000        19.0179439101885     
   149.280000000000        39.6400000000000        19.0107321472278     
   149.280000000000        39.6550000000000        19.0035290041578     
   149.280000000000        39.6700000000000        18.9963343706877     
   149.280000000000        39.6850000000000        18.9891481371196     
   149.280000000000        39.7000000000000        18.9819701943579     
   149.280000000000        39.7150000000000        18.9748004340108     
   149.280000000000        39.7300000000000        18.9676387482741     
   149.280000000000        39.7450000000000        18.9604850300020     
   149.280000000000        39.7600000000000        18.9533391726800     
   149.280000000000        39.7750000000000        18.9462010705120     
   149.280000000000        39.7900000000000        18.9390706182967     
   149.280000000000        39.8050000000000        18.9319477116132     
   149.280000000000        39.8200000000000        18.9248322466719     
   149.280000000000        39.8350000000000        18.9177241204925     
   149.280000000000        39.8500000000000        18.9106232307295     
   149.280000000000        39.8650000000000        18.9035294758742     
   149.280000000000        39.8800000000000        18.8964427549618     
   149.280000000000        39.8950000000000        18.8893629680770     
   149.280000000000        39.9100000000000        18.8822900158193     
   149.280000000000        39.9250000000000        18.8752237997560     
   149.280000000000        39.9400000000000        18.8681642221127     
   149.280000000000        39.9550000000000        18.8611111860191     
   149.280000000000        39.9700000000000        18.8540645953763     
   149.280000000000        39.9850000000000        18.8470243549418     
   149.280000000000        40.0000000000000        18.8399903702448     
   149.280000000000        40.0150000000000        18.8329625476999     
   149.280000000000        40.0300000000000        18.8259407946734     
   149.280000000000        40.0450000000000        18.8189250192918     
   149.280000000000        40.0600000000000        18.8119151305655     
   149.280000000000        40.0750000000000        18.8049110384964     
   149.280000000000        40.0900000000000        18.7979126539794     
   149.280000000000        40.1050000000000        18.7909198886609     
   149.280000000000        40.1200000000000        18.7839326553731     
   149.280000000000        40.1350000000000        18.7769508676374     
   149.280000000000        40.1500000000000        18.7699744401816     
   149.280000000000        40.1650000000000        18.7630032884445     
   149.280000000000        40.1800000000000        18.7560373290817     
   149.280000000000        40.1950000000000        18.7490764795839     
   149.280000000000        40.2100000000000        18.7421206584804     
   149.280000000000        40.2250000000000        18.7351697853246     
   149.280000000000        40.2400000000000        18.7282237806357     
   149.280000000000        40.2550000000000        18.7212825659935     
   149.280000000000        40.2700000000000        18.7143460641601     
   149.280000000000        40.2850000000000        18.7074141986595     
   149.280000000000        40.3000000000000        18.7004868944023     
   149.280000000000        40.3150000000000        18.6935640771298     
   149.280000000000        40.3300000000000        18.6866456738171     
   149.280000000000        40.3450000000000        18.6797316125358     
   149.280000000000        40.3600000000000        18.6728218223907     
   149.280000000000        40.3750000000000        18.6659162335727     
   149.280000000000        40.3900000000000        18.6590147776205     
   149.280000000000        40.4050000000000        18.6521173870351     
   149.280000000000        40.4200000000000        18.6452239955015     
   149.280000000000        40.4350000000000        18.6383345379600     
   149.280000000000        40.4500000000000        18.6314489503839     
   149.280000000000        40.4650000000000        18.6245671700908     
   149.280000000000        40.4800000000000        18.6176891355299     
   149.280000000000        40.4950000000000        18.6108147863670     
   149.280000000000        40.5100000000000        18.6039440634941     
   149.280000000000        40.5250000000000        18.5970769090745     
   149.280000000000        40.5400000000000        18.5902132664887     
   149.280000000000        40.5550000000000        18.5833530803648     
   149.280000000000        40.5700000000000        18.5764962965877     
   149.280000000000        40.5850000000000        18.5696428624469     
   149.280000000000        40.6000000000000        18.5627927264250     
   149.280000000000        40.6150000000000        18.5559458382577     
   149.280000000000        40.6300000000000        18.5491021490507     
   149.280000000000        40.6450000000000        18.5422616114283     
   149.280000000000        40.6600000000000        18.5354241790119     
   149.280000000000        40.6750000000000        18.5285898069978     
   149.280000000000        40.6900000000000        18.5217584518505     
   149.280000000000        40.7050000000000        18.5149300715348     
   149.280000000000        40.7200000000000        18.5081046252017     
   149.280000000000        40.7350000000000        18.5012820736538     
   149.280000000000        40.7500000000000        18.4944623788833     
   149.295000000000        39.2500000000000        19.1994640985577     
   149.295000000000        39.2650000000000        19.1920003515734     
   149.295000000000        39.2800000000000        19.1845481288892     
   149.295000000000        39.2950000000000        19.1771073088967     
   149.295000000000        39.3100000000000        19.1696777701509     
   149.295000000000        39.3250000000000        19.1622593915563     
   149.295000000000        39.3400000000000        19.1548520524248     
   149.295000000000        39.3550000000000        19.1474556322974     
   149.295000000000        39.3700000000000        19.1400700112044     
   149.295000000000        39.3850000000000        19.1326950694383     
   149.295000000000        39.4000000000000        19.1253306877461     
   149.295000000000        39.4150000000000        19.1179767472058     
   149.295000000000        39.4300000000000        19.1106331293595     
   149.295000000000        39.4450000000000        19.1032997161165     
   149.295000000000        39.4600000000000        19.0959763898773     
   149.295000000000        39.4750000000000        19.0886630334098     
   149.295000000000        39.4900000000000        19.0813595299733     
   149.295000000000        39.5050000000000        19.0740657632468     
   149.295000000000        39.5200000000000        19.0667816174664     
   149.295000000000        39.5350000000000        19.0595069772517     
   149.295000000000        39.5500000000000        19.0522417278316     
   149.295000000000        39.5650000000000        19.0449857547483     
   149.295000000000        39.5800000000000        19.0377389443092     
   149.295000000000        39.5950000000000        19.0305011832043     
   149.295000000000        39.6100000000000        19.0232723586869     
   149.295000000000        39.6250000000000        19.0160523585182     
   149.295000000000        39.6400000000000        19.0088410711360     
   149.295000000000        39.6550000000000        19.0016383854691     
   149.295000000000        39.6700000000000        18.9944441911102     
   149.295000000000        39.6850000000000        18.9872583780489     
   149.295000000000        39.7000000000000        18.9800808371456     
   149.295000000000        39.7150000000000        18.9729114597903     
   149.295000000000        39.7300000000000        18.9657501378661     
   149.295000000000        39.7450000000000        18.9585967640887     
   149.295000000000        39.7600000000000        18.9514512317692     
   149.295000000000        39.7750000000000        18.9443134347839     
   149.295000000000        39.7900000000000        18.9371832678444     
   149.295000000000        39.8050000000000        18.9300606262750     
   149.295000000000        39.8200000000000        18.9229454060678     
   149.295000000000        39.8350000000000        18.9158375039879     
   149.295000000000        39.8500000000000        18.9087368174642     
   149.295000000000        39.8650000000000        18.9016432447843     
   149.295000000000        39.8800000000000        18.8945566847360     
   149.295000000000        39.8950000000000        18.8874770371713     
   149.295000000000        39.9100000000000        18.8804042024785     
   149.295000000000        39.9250000000000        18.8733380819049     
   149.295000000000        39.9400000000000        18.8662785775305     
   149.295000000000        39.9550000000000        18.8592255921649     
   149.295000000000        39.9700000000000        18.8521790294908     
   149.295000000000        39.9850000000000        18.8451387939167     
   149.295000000000        40.0000000000000        18.8381047908551     
   149.295000000000        40.0150000000000        18.8310769264008     
   149.295000000000        40.0300000000000        18.8240551076433     
   149.295000000000        40.0450000000000        18.8170392424327     
   149.295000000000        40.0600000000000        18.8100292395175     
   149.295000000000        40.0750000000000        18.8030250086667     
   149.295000000000        40.0900000000000        18.7960264604117     
   149.295000000000        40.1050000000000        18.7890335061948     
   149.295000000000        40.1200000000000        18.7820460585135     
   149.295000000000        40.1350000000000        18.7750640306422     
   149.295000000000        40.1500000000000        18.7680873369736     
   149.295000000000        40.1650000000000        18.7611158928012     
   149.295000000000        40.1800000000000        18.7541496142421     
   149.295000000000        40.1950000000000        18.7471884186125     
   149.295000000000        40.2100000000000        18.7402322241651     
   149.295000000000        40.2250000000000        18.7332809500749     
   149.295000000000        40.2400000000000        18.7263345166430     
   149.295000000000        40.2550000000000        18.7193928450852     
   149.295000000000        40.2700000000000        18.7124558578143     
   149.295000000000        40.2850000000000        18.7055234781074     
   149.295000000000        40.3000000000000        18.6985956305107     
   149.295000000000        40.3150000000000        18.6916722404749     
   149.295000000000        40.3300000000000        18.6847532345819     
   149.295000000000        40.3450000000000        18.6778385406124     
   149.295000000000        40.3600000000000        18.6709280872929     
   149.295000000000        40.3750000000000        18.6640218046105     
   149.295000000000        40.3900000000000        18.6571196235946     
   149.295000000000        40.4050000000000        18.6502214765133     
   149.295000000000        40.4200000000000        18.6433272967024     
   149.295000000000        40.4350000000000        18.6364370186220     
   149.295000000000        40.4500000000000        18.6295505780417     
   149.295000000000        40.4650000000000        18.6226679119009     
   149.295000000000        40.4800000000000        18.6157889582410     
   149.295000000000        40.4950000000000        18.6089136563642     
   149.295000000000        40.5100000000000        18.6020419468277     
   149.295000000000        40.5250000000000        18.5951737714022     
   149.295000000000        40.5400000000000        18.5883090731186     
   149.295000000000        40.5550000000000        18.5814477961685     
   149.295000000000        40.5700000000000        18.5745898861751     
   149.295000000000        40.5850000000000        18.5677352899620     
   149.295000000000        40.6000000000000        18.5608839555753     
   149.295000000000        40.6150000000000        18.5540358324743     
   149.295000000000        40.6300000000000        18.5471908713716     
   149.295000000000        40.6450000000000        18.5403490243971     
   149.295000000000        40.6600000000000        18.5335102448371     
   149.295000000000        40.6750000000000        18.5266744874807     
   149.295000000000        40.6900000000000        18.5198417084139     
   149.295000000000        40.7050000000000        18.5130118651359     
   149.295000000000        40.7200000000000        18.5061849164631     
   149.295000000000        40.7350000000000        18.4993608226887     
   149.295000000000        40.7500000000000        18.4925395454266     
   149.310000000000        39.2500000000000        19.1975550803254     
   149.310000000000        39.2650000000000        19.1900922261666     
   149.310000000000        39.2800000000000        19.1826408819888     
   149.310000000000        39.2950000000000        19.1752009259508     
   149.310000000000        39.3100000000000        19.1677722365202     