 variables= "x","y","f"
 zone i=          30  datapacking=point
  0.000000000000000E+000  0.000000000000000E+000   1.00000000000000     
 -0.961272581931935       0.918721488910920       0.958341499707668     
  0.995163810769153      -0.978970337250826        1.01632529841703     
 -0.764590936048260      -0.726871918488417       0.225043209152660     
  0.278758643610078       0.153321165754765        1.54045805323405     
  0.682730114883827      -9.668432621166723E-002   1.79686914878901     
  -1.07909702351639       -1.93898778309903       4.889477169034124E-002
  -1.90091553647476       -1.53318773265666       3.225432071254731E-002
  -1.65293868480458      -0.562084782394823       0.109150952751235     
  2.504179399359696E-002  0.213476135301840        1.26936646467875     
  -1.46739585243141      -0.796249148555051       0.103970819495372     
  0.512391049234420        1.30262928975278        6.14120108198492     
   1.27360588849429        1.42840402488301        14.9096687720749     
 -0.298935434986869        1.66920493411694        3.93641141198410     
   1.99904076812085      -1.749980922847283E-002   7.25391235793115     
  -1.29422386439558        1.74277530823287        1.56604204182108     
  0.807097324671906       0.755639969137946        4.77186538174683     
 -8.078143766145440E-002  -1.06248685468973       0.318775466005192     
  -1.41776059521708      -0.251049431451768       0.188471207961768     
   1.62871069636281       -1.18089777495634        1.56488591161218     
 -0.742084813265304        1.06488952703488        1.38099563513878     
 -0.495318604260303       0.770694695289639        1.31702590336395     
   1.80090796346895       -1.69287694597546        1.11408230089107     
  0.136004159704296        1.47234143189281        4.99454137764125     
 -0.384984342148302       0.401066533473642        1.01621220580174     
   1.56816160022253       -1.34373737584722        1.25160186684129     
   1.05753228782247        1.87488974567133        18.7730444198161     
  -1.77897647835480       0.513334819738499       0.282058252954468     
  0.466466295550990      -0.381684627920279        1.08847939046889     
   1.41627081269597       -1.73216205611600       0.729138744491830     
