 variables= "x","y","fpcb"
 zone i=          22  datapacking=point
  0.000000000000000E+000  0.000000000000000E+000  0.000000000000000E+000
 -0.595351471917040        1.92781273624049       0.000000000000000E+000
  -1.49010040354142       -1.99878832252424       0.000000000000000E+000
   1.99846520914721       -1.22741443057026       0.000000000000000E+000
  0.286322272144814       -1.99802362304737       0.000000000000000E+000
  -1.99934977172583       0.497280654965341       0.000000000000000E+000
  -1.99603678719776        1.48423605622034       0.000000000000000E+000
   1.50149823732088        1.99762690931254       0.000000000000000E+000
   1.87897193967383        1.20012285542910       0.000000000000000E+000
   1.74365495834110       0.310850207153836       0.000000000000000E+000
  -1.99571466270144       -1.31066692706300       0.000000000000000E+000
  -1.42088249210042      -0.701025177584848       0.000000000000000E+000
  0.888663348502601        1.22072844874535       0.000000000000000E+000
   1.99720308183621       -1.99614258465431       0.000000000000000E+000
   1.32095130424170       -1.09918100852340       0.000000000000000E+000
  -1.35787776597431       0.723378320431121       0.000000000000000E+000
  0.765585722686932        1.99510053986746       0.000000000000000E+000
  -1.42271093384929        1.25923843024613       0.000000000000000E+000
  -1.40556779488473        1.99625441448149       0.000000000000000E+000
  -1.98733009001515       -1.99255308601555       0.000000000000000E+000
   1.99248616952390        1.89874349906997       0.000000000000000E+000
   1.99773296676716      -0.172917512855661       0.000000000000000E+000
