 variables= "x","y","f"
 zone i=          12  datapacking=point
   0.0000000000000000        0.0000000000000000        1.0000000000000000     
  0.27739805071751000      -0.42686003136886019       0.79418077385146768     
   1.1381294030625813       -5.4728929408931037E-002  0.43509780985017277     
   1.9954229305202791        1.9890653550049096       0.11188068040557528     
 -0.74498824531379615       -1.4149417559633390       0.28113044114627955     
  -1.0174388434022557        1.2557259023943392       0.27685267901066823     
  0.63263189203572567        1.3488782128125560       0.31058837284136859     
  -1.5376086600394425       0.77794098999128858       0.25192517595921687     
  -4.3294649852649858E-002  -1.8730537374403107       0.22171942513794204     
 -0.38045267787807346       -1.1414377739618922       0.40855941252833278     
   1.3682066859563649      -0.87193958832279761       0.27531006801239860     
  -1.6411381375933565       0.22043000078576291       0.26724221575727619     
