 variables= "x","y","fPC"
 zone i=         101  j=         101  datapacking=point
  -2.00000000000000       -2.00000000000000        3609.00000001054     
  -2.00000000000000       -1.96000000000000        3561.16000000815     
  -2.00000000000000       -1.92000000000000        3513.64000000639     
  -2.00000000000000       -1.88000000000000        3466.44000000509     
  -2.00000000000000       -1.84000000000000        3419.56000000411     
  -2.00000000000000       -1.80000000000000        3373.00000000336     
  -2.00000000000000       -1.76000000000000        3326.76000000277     
  -2.00000000000000       -1.72000000000000        3280.84000000229     
  -2.00000000000000       -1.68000000000000        3235.24000000189     
  -2.00000000000000       -1.64000000000000        3189.96000000155     
  -2.00000000000000       -1.60000000000000        3145.00000000125     
  -2.00000000000000       -1.56000000000000        3100.36000000099     
  -2.00000000000000       -1.52000000000000        3056.04000000077     
  -2.00000000000000       -1.48000000000000        3012.04000000057     
  -2.00000000000000       -1.44000000000000        2968.36000000040     
  -2.00000000000000       -1.40000000000000        2925.00000000025     
  -2.00000000000000       -1.36000000000000        2881.96000000014     
  -2.00000000000000       -1.32000000000000        2839.24000000004     
  -2.00000000000000       -1.28000000000000        2796.83999999996     
  -2.00000000000000       -1.24000000000000        2754.75999999990     
  -2.00000000000000       -1.20000000000000        2712.99999999986     
  -2.00000000000000       -1.16000000000000        2671.55999999982     
  -2.00000000000000       -1.12000000000000        2630.43999999980     
  -2.00000000000000       -1.08000000000000        2589.63999999978     
  -2.00000000000000       -1.04000000000000        2549.15999999976     
  -2.00000000000000       -1.00000000000000        2508.99999999975     
  -2.00000000000000      -0.960000000000000        2469.15999999974     
  -2.00000000000000      -0.920000000000000        2429.63999999972     
  -2.00000000000000      -0.880000000000000        2390.43999999970     
  -2.00000000000000      -0.840000000000000        2351.55999999969     
  -2.00000000000000      -0.800000000000000        2312.99999999968     
  -2.00000000000000      -0.760000000000000        2274.75999999967     
  -2.00000000000000      -0.720000000000000        2236.83999999966     
  -2.00000000000000      -0.680000000000000        2199.23999999966     
  -2.00000000000000      -0.640000000000000        2161.95999999966     
  -2.00000000000000      -0.600000000000000        2124.99999999967     
  -2.00000000000000      -0.560000000000000        2088.35999999969     
  -2.00000000000000      -0.520000000000000        2052.03999999973     
  -2.00000000000000      -0.480000000000000        2016.03999999977     
  -2.00000000000000      -0.440000000000000        1980.35999999983     
  -2.00000000000000      -0.400000000000000        1944.99999999989     
  -2.00000000000000      -0.360000000000000        1909.95999999998     
  -2.00000000000000      -0.320000000000000        1875.24000000006     
  -2.00000000000000      -0.280000000000000        1840.84000000016     
  -2.00000000000000      -0.240000000000000        1806.76000000027     
  -2.00000000000000      -0.200000000000000        1773.00000000037     
  -2.00000000000000      -0.160000000000000        1739.56000000048     
  -2.00000000000000      -0.120000000000000        1706.44000000059     
  -2.00000000000000      -8.000000000000007E-002   1673.64000000069     
  -2.00000000000000      -4.000000000000004E-002   1641.16000000078     
  -2.00000000000000       0.000000000000000E+000   1609.00000000087     
  -2.00000000000000       4.000000000000004E-002   1577.16000000093     
  -2.00000000000000       8.000000000000007E-002   1545.64000000099     
  -2.00000000000000       0.120000000000000        1514.44000000102     
  -2.00000000000000       0.160000000000000        1483.56000000104     
  -2.00000000000000       0.200000000000000        1453.00000000104     
  -2.00000000000000       0.240000000000000        1422.76000000101     
  -2.00000000000000       0.280000000000000        1392.84000000097     
  -2.00000000000000       0.320000000000000        1363.24000000090     
  -2.00000000000000       0.360000000000000        1333.96000000082     
  -2.00000000000000       0.400000000000000        1305.00000000073     
  -2.00000000000000       0.440000000000000        1276.36000000062     
  -2.00000000000000       0.480000000000000        1248.04000000050     
  -2.00000000000000       0.520000000000000        1220.04000000038     
  -2.00000000000000       0.560000000000000        1192.36000000026     
  -2.00000000000000       0.600000000000000        1165.00000000014     
  -2.00000000000000       0.640000000000000        1137.96000000002     
  -2.00000000000000       0.680000000000000        1111.23999999991     
  -2.00000000000000       0.720000000000000        1084.83999999981     
  -2.00000000000000       0.760000000000000        1058.75999999972     
  -2.00000000000000       0.800000000000000        1032.99999999964     
  -2.00000000000000       0.840000000000000        1007.55999999958     
  -2.00000000000000       0.880000000000000        982.439999999526     
  -2.00000000000000       0.920000000000000        957.639999999484     
  -2.00000000000000       0.960000000000000        933.159999999449     
  -2.00000000000000        1.00000000000000        908.999999999418     
  -2.00000000000000        1.04000000000000        885.159999999386     
  -2.00000000000000        1.08000000000000        861.639999999348     
  -2.00000000000000        1.12000000000000        838.439999999300     
  -2.00000000000000        1.16000000000000        815.559999999234     
  -2.00000000000000        1.20000000000000        792.999999999148     
  -2.00000000000000        1.24000000000000        770.759999999035     
  -2.00000000000000        1.28000000000000        748.839999998894     
  -2.00000000000000        1.32000000000000        727.239999998720     
  -2.00000000000000        1.36000000000000        705.959999998512     
  -2.00000000000000        1.40000000000000        684.999999998271     
  -2.00000000000000        1.44000000000000        664.359999997999     
  -2.00000000000000        1.48000000000000        644.039999997696     
  -2.00000000000000        1.52000000000000        624.039999997366     
  -2.00000000000000        1.56000000000000        604.359999997012     
  -2.00000000000000        1.60000000000000        584.999999996634     
  -2.00000000000000        1.64000000000000        565.959999996224     
  -2.00000000000000        1.68000000000000        547.239999995773     
  -2.00000000000000        1.72000000000000        528.839999995256     
  -2.00000000000000        1.76000000000000        510.759999994633     
  -2.00000000000000        1.80000000000000        492.999999993841     
  -2.00000000000000        1.84000000000000        475.559999992787     
  -2.00000000000000        1.88000000000000        458.439999991336     
  -2.00000000000000        1.92000000000000        441.639999989302     
  -2.00000000000000        1.96000000000000        425.159999986432     
  -2.00000000000000        2.00000000000000        408.999999982390     
  -1.96000000000000       -2.00000000000000        3421.19065601058     
  -1.96000000000000       -1.96000000000000        3374.61785600830     
  -1.96000000000000       -1.92000000000000        3328.36505600666     
  -1.96000000000000       -1.88000000000000        3282.43225600546     
  -1.96000000000000       -1.84000000000000        3236.81945600458     
  -1.96000000000000       -1.80000000000000        3191.52665600392     
  -1.96000000000000       -1.76000000000000        3146.55385600341     
  -1.96000000000000       -1.72000000000000        3101.90105600301     
  -1.96000000000000       -1.68000000000000        3057.56825600268     
  -1.96000000000000       -1.64000000000000        3013.55545600240     
  -1.96000000000000       -1.60000000000000        2969.86265600215     
  -1.96000000000000       -1.56000000000000        2926.48985600194     
  -1.96000000000000       -1.52000000000000        2883.43705600175     
  -1.96000000000000       -1.48000000000000        2840.70425600159     
  -1.96000000000000       -1.44000000000000        2798.29145600146     
  -1.96000000000000       -1.40000000000000        2756.19865600134     
  -1.96000000000000       -1.36000000000000        2714.42585600124     
  -1.96000000000000       -1.32000000000000        2672.97305600117     
  -1.96000000000000       -1.28000000000000        2631.84025600111     
  -1.96000000000000       -1.24000000000000        2591.02745600106     
  -1.96000000000000       -1.20000000000000        2550.53465600102     
  -1.96000000000000       -1.16000000000000        2510.36185600100     
  -1.96000000000000       -1.12000000000000        2470.50905600098     
  -1.96000000000000       -1.08000000000000        2430.97625600096     
  -1.96000000000000       -1.04000000000000        2391.76345600094     
  -1.96000000000000       -1.00000000000000        2352.87065600092     
  -1.96000000000000      -0.960000000000000        2314.29785600090     
  -1.96000000000000      -0.920000000000000        2276.04505600088     
  -1.96000000000000      -0.880000000000000        2238.11225600085     
  -1.96000000000000      -0.840000000000000        2200.49945600082     
  -1.96000000000000      -0.800000000000000        2163.20665600079     
  -1.96000000000000      -0.760000000000000        2126.23385600076     
  -1.96000000000000      -0.720000000000000        2089.58105600073     
  -1.96000000000000      -0.680000000000000        2053.24825600070     
  -1.96000000000000      -0.640000000000000        2017.23545600067     
  -1.96000000000000      -0.600000000000000        1981.54265600066     
  -1.96000000000000      -0.560000000000000        1946.16985600065     
  -1.96000000000000      -0.520000000000000        1911.11705600065     
  -1.96000000000000      -0.480000000000000        1876.38425600066     
  -1.96000000000000      -0.440000000000000        1841.97145600068     
  -1.96000000000000      -0.400000000000000        1807.87865600071     
  -1.96000000000000      -0.360000000000000        1774.10585600076     
  -1.96000000000000      -0.320000000000000        1740.65305600081     
  -1.96000000000000      -0.280000000000000        1707.52025600087     
  -1.96000000000000      -0.240000000000000        1674.70745600094     
  -1.96000000000000      -0.200000000000000        1642.21465600101     
  -1.96000000000000      -0.160000000000000        1610.04185600108     
  -1.96000000000000      -0.120000000000000        1578.18905600115     
  -1.96000000000000      -8.000000000000007E-002   1546.65625600122     
  -1.96000000000000      -4.000000000000004E-002   1515.44345600128     
  -1.96000000000000       0.000000000000000E+000   1484.55065600132     
  -1.96000000000000       4.000000000000004E-002   1453.97785600136     
  -1.96000000000000       8.000000000000007E-002   1423.72505600138     
  -1.96000000000000       0.120000000000000        1393.79225600139     
  -1.96000000000000       0.160000000000000        1364.17945600137     
  -1.96000000000000       0.200000000000000        1334.88665600134     
  -1.96000000000000       0.240000000000000        1305.91385600129     
  -1.96000000000000       0.280000000000000        1277.26105600122     
  -1.96000000000000       0.320000000000000        1248.92825600114     
  -1.96000000000000       0.360000000000000        1220.91545600103     
  -1.96000000000000       0.400000000000000        1193.22265600092     
  -1.96000000000000       0.440000000000000        1165.84985600079     
  -1.96000000000000       0.480000000000000        1138.79705600066     
  -1.96000000000000       0.520000000000000        1112.06425600052     
  -1.96000000000000       0.560000000000000        1085.65145600038     
  -1.96000000000000       0.600000000000000        1059.55865600025     
  -1.96000000000000       0.640000000000000        1033.78585600012     
  -1.96000000000000       0.680000000000000        1008.33305600000     
  -1.96000000000000       0.720000000000000        983.200255999890     
  -1.96000000000000       0.760000000000000        958.387455999794     
  -1.96000000000000       0.800000000000000        933.894655999711     
  -1.96000000000000       0.840000000000000        909.721855999643     
  -1.96000000000000       0.880000000000000        885.869055999587     
  -1.96000000000000       0.920000000000000        862.336255999543     
  -1.96000000000000       0.960000000000000        839.123455999508     
  -1.96000000000000        1.00000000000000        816.230655999477     
  -1.96000000000000        1.04000000000000        793.657855999447     
  -1.96000000000000        1.08000000000000        771.405055999412     
  -1.96000000000000        1.12000000000000        749.472255999367     
  -1.96000000000000        1.16000000000000        727.859455999308     
  -1.96000000000000        1.20000000000000        706.566655999228     
  -1.96000000000000        1.24000000000000        685.593855999124     
  -1.96000000000000        1.28000000000000        664.941055998991     
  -1.96000000000000        1.32000000000000        644.608255998827     
  -1.96000000000000        1.36000000000000        624.595455998631     
  -1.96000000000000        1.40000000000000        604.902655998403     
  -1.96000000000000        1.44000000000000        585.529855998144     
  -1.96000000000000        1.48000000000000        566.477055997858     
  -1.96000000000000        1.52000000000000        547.744255997546     
  -1.96000000000000        1.56000000000000        529.331455997213     
  -1.96000000000000        1.60000000000000        511.238655996857     
  -1.96000000000000        1.64000000000000        493.465855996477     
  -1.96000000000000        1.68000000000000        476.013055996059     
  -1.96000000000000        1.72000000000000        458.880255995584     
  -1.96000000000000        1.76000000000000        442.067455995011     
  -1.96000000000000        1.80000000000000        425.574655994283     
  -1.96000000000000        1.84000000000000        409.401855993308     
  -1.96000000000000        1.88000000000000        393.549055991957     
  -1.96000000000000        1.92000000000000        378.016255990049     
  -1.96000000000000        1.96000000000000        362.803455987338     
  -1.96000000000000        2.00000000000000        347.910655983496     
  -1.92000000000000       -2.00000000000000        3242.04089601037     
  -1.92000000000000       -1.96000000000000        3196.70969600817     
  -1.92000000000000       -1.92000000000000        3151.69849600661     
  -1.92000000000000       -1.88000000000000        3107.00729600549     
  -1.92000000000000       -1.84000000000000        3062.63609600468     
  -1.92000000000000       -1.80000000000000        3018.58489600409     
  -1.92000000000000       -1.76000000000000        2974.85369600364     
  -1.92000000000000       -1.72000000000000        2931.44249600329     
  -1.92000000000000       -1.68000000000000        2888.35129600301     
  -1.92000000000000       -1.64000000000000        2845.58009600277     
  -1.92000000000000       -1.60000000000000        2803.12889600256     
  -1.92000000000000       -1.56000000000000        2760.99769600238     
  -1.92000000000000       -1.52000000000000        2719.18649600223     
  -1.92000000000000       -1.48000000000000        2677.69529600209     
  -1.92000000000000       -1.44000000000000        2636.52409600198     
  -1.92000000000000       -1.40000000000000        2595.67289600188     
  -1.92000000000000       -1.36000000000000        2555.14169600180     
  -1.92000000000000       -1.32000000000000        2514.93049600174     
  -1.92000000000000       -1.28000000000000        2475.03929600169     
  -1.92000000000000       -1.24000000000000        2435.46809600166     
  -1.92000000000000       -1.20000000000000        2396.21689600163     
  -1.92000000000000       -1.16000000000000        2357.28569600161     
  -1.92000000000000       -1.12000000000000        2318.67449600159     
  -1.92000000000000       -1.08000000000000        2280.38329600157     
  -1.92000000000000       -1.04000000000000        2242.41209600155     
  -1.92000000000000       -1.00000000000000        2204.76089600153     
  -1.92000000000000      -0.960000000000000        2167.42969600150     
  -1.92000000000000      -0.920000000000000        2130.41849600147     
  -1.92000000000000      -0.880000000000000        2093.72729600144     
  -1.92000000000000      -0.840000000000000        2057.35609600140     
  -1.92000000000000      -0.800000000000000        2021.30489600136     
  -1.92000000000000      -0.760000000000000        1985.57369600131     
  -1.92000000000000      -0.720000000000000        1950.16249600127     
  -1.92000000000000      -0.680000000000000        1915.07129600122     
  -1.92000000000000      -0.640000000000000        1880.30009600118     
  -1.92000000000000      -0.600000000000000        1845.84889600114     
  -1.92000000000000      -0.560000000000000        1811.71769600111     
  -1.92000000000000      -0.520000000000000        1777.90649600109     
  -1.92000000000000      -0.480000000000000        1744.41529600108     
  -1.92000000000000      -0.440000000000000        1711.24409600108     
  -1.92000000000000      -0.400000000000000        1678.39289600109     
  -1.92000000000000      -0.360000000000000        1645.86169600111     
  -1.92000000000000      -0.320000000000000        1613.65049600113     
  -1.92000000000000      -0.280000000000000        1581.75929600117     
  -1.92000000000000      -0.240000000000000        1550.18809600121     
  -1.92000000000000      -0.200000000000000        1518.93689600126     
  -1.92000000000000      -0.160000000000000        1488.00569600130     
  -1.92000000000000      -0.120000000000000        1457.39449600135     
  -1.92000000000000      -8.000000000000007E-002   1427.10329600139     
  -1.92000000000000      -4.000000000000004E-002   1397.13209600143     
  -1.92000000000000       0.000000000000000E+000   1367.48089600146     
  -1.92000000000000       4.000000000000004E-002   1338.14969600148     
  -1.92000000000000       8.000000000000007E-002   1309.13849600148     
  -1.92000000000000       0.120000000000000        1280.44729600147     
  -1.92000000000000       0.160000000000000        1252.07609600144     
  -1.92000000000000       0.200000000000000        1224.02489600139     
  -1.92000000000000       0.240000000000000        1196.29369600133     
  -1.92000000000000       0.280000000000000        1168.88249600125     
  -1.92000000000000       0.320000000000000        1141.79129600115     
  -1.92000000000000       0.360000000000000        1115.02009600104     
  -1.92000000000000       0.400000000000000        1088.56889600092     
  -1.92000000000000       0.440000000000000        1062.43769600079     
  -1.92000000000000       0.480000000000000        1036.62649600065     
  -1.92000000000000       0.520000000000000        1011.13529600051     
  -1.92000000000000       0.560000000000000        985.964096000364     
  -1.92000000000000       0.600000000000000        961.112896000227     
  -1.92000000000000       0.640000000000000        936.581696000097     
  -1.92000000000000       0.680000000000000        912.370495999977     
  -1.92000000000000       0.720000000000000        888.479295999869     
  -1.92000000000000       0.760000000000000        864.908095999774     
  -1.92000000000000       0.800000000000000        841.656895999695     
  -1.92000000000000       0.840000000000000        818.725695999630     
  -1.92000000000000       0.880000000000000        796.114495999579     
  -1.92000000000000       0.920000000000000        773.823295999540     
  -1.92000000000000       0.960000000000000        751.852095999511     
  -1.92000000000000        1.00000000000000        730.200895999487     
  -1.92000000000000        1.04000000000000        708.869695999465     
  -1.92000000000000        1.08000000000000        687.858495999438     
  -1.92000000000000        1.12000000000000        667.167295999403     
  -1.92000000000000        1.16000000000000        646.796095999354     
  -1.92000000000000        1.20000000000000        626.744895999284     
  -1.92000000000000        1.24000000000000        607.013695999191     
  -1.92000000000000        1.28000000000000        587.602495999070     
  -1.92000000000000        1.32000000000000        568.511295998918     
  -1.92000000000000        1.36000000000000        549.740095998735     
  -1.92000000000000        1.40000000000000        531.288895998521     
  -1.92000000000000        1.44000000000000        513.157695998276     
  -1.92000000000000        1.48000000000000        495.346495998004     
  -1.92000000000000        1.52000000000000        477.855295997710     
  -1.92000000000000        1.56000000000000        460.684095997395     
  -1.92000000000000        1.60000000000000        443.832895997060     
  -1.92000000000000        1.64000000000000        427.301695996704     
  -1.92000000000000        1.68000000000000        411.090495996315     
  -1.92000000000000        1.72000000000000        395.199295995874     
  -1.92000000000000        1.76000000000000        379.628095995345     
  -1.92000000000000        1.80000000000000        364.376895994671     
  -1.92000000000000        1.84000000000000        349.445695993765     
  -1.92000000000000        1.88000000000000        334.834495992502     
  -1.92000000000000        1.92000000000000        320.543295990706     
  -1.92000000000000        1.96000000000000        306.572095988138     
  -1.92000000000000        2.00000000000000        292.920895984477     
  -1.88000000000000       -2.00000000000000        3071.25273601000     
  -1.88000000000000       -1.96000000000000        3027.13753600786     
  -1.88000000000000       -1.92000000000000        2983.34233600635     
  -1.88000000000000       -1.88000000000000        2939.86713600529     
  -1.88000000000000       -1.84000000000000        2896.71193600453     
  -1.88000000000000       -1.80000000000000        2853.87673600399     
  -1.88000000000000       -1.76000000000000        2811.36153600358     
  -1.88000000000000       -1.72000000000000        2769.16633600327     
  -1.88000000000000       -1.68000000000000        2727.29113600302     
  -1.88000000000000       -1.64000000000000        2685.73593600282     
  -1.88000000000000       -1.60000000000000        2644.50073600264     
  -1.88000000000000       -1.56000000000000        2603.58553600249     
  -1.88000000000000       -1.52000000000000        2562.99033600235     
  -1.88000000000000       -1.48000000000000        2522.71513600224     
  -1.88000000000000       -1.44000000000000        2482.75993600214     
  -1.88000000000000       -1.40000000000000        2443.12473600205     
  -1.88000000000000       -1.36000000000000        2403.80953600199     
  -1.88000000000000       -1.32000000000000        2364.81433600193     
  -1.88000000000000       -1.28000000000000        2326.13913600189     
  -1.88000000000000       -1.24000000000000        2287.78393600187     
  -1.88000000000000       -1.20000000000000        2249.74873600184     
  -1.88000000000000       -1.16000000000000        2212.03353600183     
  -1.88000000000000       -1.12000000000000        2174.63833600181     
  -1.88000000000000       -1.08000000000000        2137.56313600180     
  -1.88000000000000       -1.04000000000000        2100.80793600178     
  -1.88000000000000       -1.00000000000000        2064.37273600176     
  -1.88000000000000      -0.960000000000000        2028.25753600173     
  -1.88000000000000      -0.920000000000000        1992.46233600169     
  -1.88000000000000      -0.880000000000000        1956.98713600165     
  -1.88000000000000      -0.840000000000000        1921.83193600161     
  -1.88000000000000      -0.800000000000000        1886.99673600156     
  -1.88000000000000      -0.760000000000000        1852.48153600150     
  -1.88000000000000      -0.720000000000000        1818.28633600145     
  -1.88000000000000      -0.680000000000000        1784.41113600139     
  -1.88000000000000      -0.640000000000000        1750.85593600134     
  -1.88000000000000      -0.600000000000000        1717.62073600129     
  -1.88000000000000      -0.560000000000000        1684.70553600125     
  -1.88000000000000      -0.520000000000000        1652.11033600121     
  -1.88000000000000      -0.480000000000000        1619.83513600118     
  -1.88000000000000      -0.440000000000000        1587.87993600117     
  -1.88000000000000      -0.400000000000000        1556.24473600116     
  -1.88000000000000      -0.360000000000000        1524.92953600116     
  -1.88000000000000      -0.320000000000000        1493.93433600117     
  -1.88000000000000      -0.280000000000000        1463.25913600119     
  -1.88000000000000      -0.240000000000000        1432.90393600122     
  -1.88000000000000      -0.200000000000000        1402.86873600125     
  -1.88000000000000      -0.160000000000000        1373.15353600128     
  -1.88000000000000      -0.120000000000000        1343.75833600132     
  -1.88000000000000      -8.000000000000007E-002   1314.68313600135     
  -1.88000000000000      -4.000000000000004E-002   1285.92793600137     
  -1.88000000000000       0.000000000000000E+000   1257.49273600139     
  -1.88000000000000       4.000000000000004E-002   1229.37753600140     
  -1.88000000000000       8.000000000000007E-002   1201.58233600139     
  -1.88000000000000       0.120000000000000        1174.10713600137     
  -1.88000000000000       0.160000000000000        1146.95193600134     
  -1.88000000000000       0.200000000000000        1120.11673600128     
  -1.88000000000000       0.240000000000000        1093.60153600122     
  -1.88000000000000       0.280000000000000        1067.40633600114     
  -1.88000000000000       0.320000000000000        1041.53113600104     
  -1.88000000000000       0.360000000000000        1015.97593600093     
  -1.88000000000000       0.400000000000000        990.740736000806     
  -1.88000000000000       0.440000000000000        965.825536000676     
  -1.88000000000000       0.480000000000000        941.230336000541     
  -1.88000000000000       0.520000000000000        916.955136000403     
  -1.88000000000000       0.560000000000000        892.999936000268     
  -1.88000000000000       0.600000000000000        869.364736000136     
  -1.88000000000000       0.640000000000000        846.049536000012     
  -1.88000000000000       0.680000000000000        823.054335999899     
  -1.88000000000000       0.720000000000000        800.379135999799     
  -1.88000000000000       0.760000000000000        778.023935999713     
  -1.88000000000000       0.800000000000000        755.988735999642     
  -1.88000000000000       0.840000000000000        734.273535999587     
  -1.88000000000000       0.880000000000000        712.878335999546     
  -1.88000000000000       0.920000000000000        691.803135999518     
  -1.88000000000000       0.960000000000000        671.047935999499     
  -1.88000000000000        1.00000000000000        650.612735999486     
  -1.88000000000000        1.04000000000000        630.497535999475     
  -1.88000000000000        1.08000000000000        610.702335999459     
  -1.88000000000000        1.12000000000000        591.227135999436     
  -1.88000000000000        1.16000000000000        572.071935999398     
  -1.88000000000000        1.20000000000000        553.236735999341     
  -1.88000000000000        1.24000000000000        534.721535999260     
  -1.88000000000000        1.28000000000000        516.526335999151     
  -1.88000000000000        1.32000000000000        498.651135999012     
  -1.88000000000000        1.36000000000000        481.095935998841     
  -1.88000000000000        1.40000000000000        463.860735998639     
  -1.88000000000000        1.44000000000000        446.945535998408     
  -1.88000000000000        1.48000000000000        430.350335998149     
  -1.88000000000000        1.52000000000000        414.075135997869     
  -1.88000000000000        1.56000000000000        398.119935997569     
  -1.88000000000000        1.60000000000000        382.484735997251     
  -1.88000000000000        1.64000000000000        367.169535996913     
  -1.88000000000000        1.68000000000000        352.174335996548     
  -1.88000000000000        1.72000000000000        337.499135996135     
  -1.88000000000000        1.76000000000000        323.143935995641     
  -1.88000000000000        1.80000000000000        309.108735995012     
  -1.88000000000000        1.84000000000000        295.393535994164     
  -1.88000000000000        1.88000000000000        281.998335992977     
  -1.88000000000000        1.92000000000000        268.923135991279     
  -1.88000000000000        1.96000000000000        256.167935988838     
  -1.88000000000000        2.00000000000000        243.732735985341     
  -1.84000000000000       -2.00000000000000        2908.53433600955     
  -1.84000000000000       -1.96000000000000        2865.60953600746     
  -1.84000000000000       -1.92000000000000        2823.00473600599     
  -1.84000000000000       -1.88000000000000        2780.71993600496     
  -1.84000000000000       -1.84000000000000        2738.75513600424     