 variables= "x","y","fpcb"
 zone i=         156  datapacking=point
  0.000000000000000E+000  0.000000000000000E+000  0.000000000000000E+000
   1.36126642102137        1.54129610187879       0.000000000000000E+000
 -0.104352724452438       -1.98187003029947       0.000000000000000E+000
  -1.49260343977834       0.528582591029309       0.000000000000000E+000
   1.81398777298512       0.614880464491736       0.000000000000000E+000
  -1.03477200872854        1.20505768326901       0.000000000000000E+000
  0.950485874153832      -0.413698853362477       0.000000000000000E+000
 -0.456640332561909       -1.40026470992110       0.000000000000000E+000
  -1.66316019831372        1.75102056550701       0.000000000000000E+000
  0.357456330959813      -0.779173603735733       0.000000000000000E+000
 -0.595081766260341       -1.02530332576766       0.000000000000000E+000
  0.642572922841528       9.064040598278877E-002  0.000000000000000E+000
  -1.99815272769272       -1.16147202703448       0.000000000000000E+000
  -1.95242556551777      -0.462363294860439       0.000000000000000E+000
  -1.99736989166113       -1.85655680361878       0.000000000000000E+000
  0.127987638532892        1.99829497985054       0.000000000000000E+000
   1.99374496866719        1.99855000975411       0.000000000000000E+000
  -1.37854311759756      -0.877660586739389       0.000000000000000E+000
 -0.533813537529276        1.99063893913719       0.000000000000000E+000
  0.806729612236168        1.96593511006314       0.000000000000000E+000
   1.58544773617771       -1.98874401281980       0.000000000000000E+000
   1.44671359704673       -1.44264706146174       0.000000000000000E+000
   1.04635533231389       -1.91354949469317       0.000000000000000E+000
   1.51857440418179      -0.903733353774681       0.000000000000000E+000
  -1.99677367697594        1.07357994695397       0.000000000000000E+000
  -1.44809339733332       -1.76025503892516       0.000000000000000E+000
  0.995421817649302       -1.09952040148276       0.000000000000000E+000
 -4.674153249300983E-002  0.834332656607062       0.000000000000000E+000
  -1.99315453047208       0.216577726350781       0.000000000000000E+000
   1.54772140433421      -0.364928395236073       0.000000000000000E+000
   1.95433226907075       -1.86568886762460       0.000000000000000E+000
   1.97116184131789       -1.46624182497517       0.000000000000000E+000
   1.99693053186493      -0.986286961021111       0.000000000000000E+000
   1.95329208956671      -0.531080713093521       0.000000000000000E+000
   1.99423073983299      -0.121755498293552       0.000000000000000E+000
  -1.60485124944736        1.06778272406539       0.000000000000000E+000
  -1.93565360417135        1.46285016461972       0.000000000000000E+000
   1.54043584883247        1.94639537537178       0.000000000000000E+000
   1.94999285454975        1.56963158672638       0.000000000000000E+000
  -1.90783123988535       0.678428809517135       0.000000000000000E+000
  -1.38500597443487        1.42589704162234       0.000000000000000E+000
   1.62904324743128       0.976334635693885       0.000000000000000E+000
  -1.68920784979485      -0.145433168909866       0.000000000000000E+000
  -1.97149542783808        1.97837035438581       0.000000000000000E+000
 -0.965017035414828       -1.92681252004771       0.000000000000000E+000
  -1.66925264332199       -1.37243246215450       0.000000000000000E+000
  -1.54731753066214      -0.483501091132132       0.000000000000000E+000
  -1.73147336519152      -0.797481006005589       0.000000000000000E+000
 -0.610803331980993       -1.97007238271024       0.000000000000000E+000
  -1.32732347774275       3.594894553735228E-002  0.000000000000000E+000
  0.259815519653351       -1.76650776716800       0.000000000000000E+000
   1.98811556458771       0.978141227065488       0.000000000000000E+000
  -1.19399798941471      -0.419001914659609       0.000000000000000E+000
 -0.915740538230160       -1.47058964894188       0.000000000000000E+000
 -0.194146915391368        1.61326648044108       0.000000000000000E+000
 -0.981043952343194      -9.519988249560551E-002  0.000000000000000E+000
   1.38537201246752       0.414226762430717       0.000000000000000E+000
  -1.70114356042874       -1.96667523805462       0.000000000000000E+000
   1.08931677017737       0.532223544354545       0.000000000000000E+000
   1.19684578881700       0.993451987106261       0.000000000000000E+000
   1.04407996453151        1.36730016784675       0.000000000000000E+000
  -1.36706280728432        1.96296119606505       0.000000000000000E+000
  0.522877683796554        1.22630768553852       0.000000000000000E+000
  0.847764425162181       0.785442688254045       0.000000000000000E+000
  0.875523836006055        1.10860353390985       0.000000000000000E+000
  -1.92532481477055       -1.55639898463434       0.000000000000000E+000
 -0.958461341813561        1.98029258585262       0.000000000000000E+000
   1.47479190717658       0.708186011048850       0.000000000000000E+000
   1.74630192724727       0.198179705993091       0.000000000000000E+000
   1.70506946054442       -1.68320830858175       0.000000000000000E+000
  0.817892155232930        1.64219306564225       0.000000000000000E+000
   1.73219120708840        1.35446034557052       0.000000000000000E+000
   1.75524092271189       -1.07098390206632       0.000000000000000E+000
   1.20179696677650        1.98015048518803       0.000000000000000E+000
  0.494340191993617        1.98791259597727       0.000000000000000E+000
  0.688712466120281       -1.93646656526965       0.000000000000000E+000
   1.75625072873963      -0.696273358204647       0.000000000000000E+000
   1.36034440619956       -1.69919389999693       0.000000000000000E+000
 -0.133108651558194        1.98935367572205       0.000000000000000E+000
   1.74597184471139        1.77958743769787       0.000000000000000E+000
   1.72006094801919       -1.35647279498958       0.000000000000000E+000
   1.24498140552553      -0.721803800066665       0.000000000000000E+000
  -1.30149012934179       -1.96985726129389       0.000000000000000E+000
 -0.233856082873531       0.495192523178077       0.000000000000000E+000
   1.93177720795415       0.388127482181553       0.000000000000000E+000
 -0.743828908391679        1.82558888683325       0.000000000000000E+000
  -1.97969248585731      -7.121591438271158E-002  0.000000000000000E+000
  2.602441262173150E-002  0.321436957468901       0.000000000000000E+000
  -1.34587538850468       -1.48471859587307       0.000000000000000E+000
 -0.538696383397943       0.850577316978602       0.000000000000000E+000
   1.32612237318665       -1.99282003049784       0.000000000000000E+000
  0.397163569829404       -1.99309477069547       0.000000000000000E+000
  -1.97903858575042       0.454367364757808       0.000000000000000E+000
  -1.83534525670977       0.908630662909250       0.000000000000000E+000
  -1.78709071322474        1.23246246529702       0.000000000000000E+000
  0.158650209132658       -1.98671568164955       0.000000000000000E+000
   1.99398011149046       0.135921598933334       0.000000000000000E+000
 -0.422372504585031      -0.596307677558247       0.000000000000000E+000
 -0.841859509536568       0.555478839559427       0.000000000000000E+000
 -0.157093951210229      -0.611251473933960       0.000000000000000E+000
 -0.239479856608928      -0.833202987702884       0.000000000000000E+000
 -0.201422605400834      -0.382727204731638       0.000000000000000E+000
 -0.660263078032052      -0.531219225356819       0.000000000000000E+000
  0.719911796197481       -1.16086207479005       0.000000000000000E+000
 -0.566809201114425      -0.790213930553921       0.000000000000000E+000
   1.82014522983068      -0.319658517676977       0.000000000000000E+000
 -0.435175963386207      -0.365578003981613       0.000000000000000E+000
  -1.99045044038362      -0.845219856660931       0.000000000000000E+000
  -1.77368737663752       0.308801272151629       0.000000000000000E+000
 -0.913247055076469       0.788997591298249       0.000000000000000E+000
  -1.76391908063086        1.97745956670008       0.000000000000000E+000
  0.314245190950502        1.88031695728610       0.000000000000000E+000
 -0.340588578484193        1.90072698517826       0.000000000000000E+000
   1.76591901278929        1.99123503675235       0.000000000000000E+000
  0.983144942064058        1.85390105286419       0.000000000000000E+000
  0.664135934386440        1.81015858241608       0.000000000000000E+000
 -7.315528601652632E-003   1.36075575198323       0.000000000000000E+000
   1.28799408335421        1.34249671178380       0.000000000000000E+000
  0.219235458943728        1.36161289546837       0.000000000000000E+000
 -0.296942813140596       -1.86984866379591       0.000000000000000E+000
 -0.225572974611583        1.35835823786748       0.000000000000000E+000
  -1.14379875080569       -1.80469155538986       0.000000000000000E+000
  0.430334962074718        1.40885152003380       0.000000000000000E+000
  4.088317792399865E-002   1.80186706012165       0.000000000000000E+000
   1.98374525649536      -0.769435371708718       0.000000000000000E+000
  0.808201972905998        1.40725540710001       0.000000000000000E+000
   1.52149810873746        1.31784027047444       0.000000000000000E+000
 -0.472005451034417        1.35069693141776       0.000000000000000E+000
 -0.745651998140233        1.37176415765811       0.000000000000000E+000
 -0.775201624375577       -1.84212279020116       0.000000000000000E+000
   1.98627931704518        1.32955740738812       0.000000000000000E+000
   1.14047545321947        1.56434093821660       0.000000000000000E+000
  -1.98983016028987        1.75899563752374       0.000000000000000E+000
  -1.56952018675873        1.99393704438965       0.000000000000000E+000
 -0.183782220751964       -1.41771901554671       0.000000000000000E+000
  5.029437794593417E-003  -1.36801107661160       0.000000000000000E+000
 -0.130404995320001       -1.23053485790894       0.000000000000000E+000
 -0.314549517053130       -1.55558794038287       0.000000000000000E+000
 -0.102422805412579       -1.60651261886120       0.000000000000000E+000
  -1.46609811184035        1.78917458177542       0.000000000000000E+000
  0.168068763852298       -1.46585643330637       0.000000000000000E+000
 -0.369857609636418       -1.22675951122755       0.000000000000000E+000
  0.154573471768752       -1.25042396167965       0.000000000000000E+000
  -1.99503628943741      -0.263386481980720       0.000000000000000E+000
  0.866718907757333       -1.84858363223414       0.000000000000000E+000
   1.77636636582363       -1.94072139134750       0.000000000000000E+000
 -0.244870096249339       -1.05924863358848       0.000000000000000E+000
  -1.83450283269801        1.63088442749246       0.000000000000000E+000
   1.91178955876854       -1.67676872585912       0.000000000000000E+000
 -3.783234708556460E-004  -1.06954367293485       0.000000000000000E+000
  -1.50204602603788       -1.98478077711544       0.000000000000000E+000
  0.347012734399492       -1.32285622394567       0.000000000000000E+000
  -1.56931334253405        1.54462193461078       0.000000000000000E+000
 -0.546522426726970       -1.56986767206128       0.000000000000000E+000
 -0.581955448007131       -1.24363741404003       0.000000000000000E+000
  -1.12322102884851       0.967813050695680       0.000000000000000E+000
