 variables= "x","y","f"
 zone i=          20  datapacking=point
  0.394366761211851       0.964280932945740       0.210560846182736     
  0.747155704760602       0.669640098251207       0.153392528319307     
   1.07093001980702        1.39113134763404      -0.777867357326560     
   1.24584295949067       0.494559699602428      -0.168794343077446     
   1.25762026693288        1.56487132407842      -0.949517810164168     
  0.323826347682838       0.542343843571164       0.647749044762047     
   1.42442557095495       0.797978938111356      -0.606465870454014     
  0.945571083721040        1.00701288011913      -0.372579991168847     
   1.58820416211533        1.36547616844875      -0.982396371216830     
  0.822352750547766        1.18296322060115      -0.420974732619968     
  0.532678520495060       0.312848694997711       0.663336848302574     
   1.72789398945925        1.67301688228854      -0.966565026371330     
  0.265576809598953       0.280144846390527       0.854752948623201     
   1.73185346421520       0.380290370983991      -0.515291294181345     
   1.72432210163935       0.921661525196566      -0.879679239673356     
   1.62587507291312       0.648795171717018      -0.647175781658767     
   1.69652918310252        1.14929224815578      -0.956577632732938     
  0.618208478527087        1.73762528207553      -0.706851660846578     
  0.845626140881922        1.74646631589983      -0.852785656312357     
  0.876029452487421       0.480016902798611       0.213103149700982     
