 variables= "x","y","f"
 zone i=         101  j=         101  datapacking=point
  -2.00000000000000       -2.00000000000000       0.111111111111111     
  -2.00000000000000       -1.96000000000000       0.113101701049584     
  -2.00000000000000       -1.92000000000000       0.115122490329711     
  -2.00000000000000       -1.88000000000000       0.117172853393326     
  -2.00000000000000       -1.84000000000000       0.119252051135280     
  -2.00000000000000       -1.80000000000000       0.121359223300971     
  -2.00000000000000       -1.76000000000000       0.123493380754792     
  -2.00000000000000       -1.72000000000000       0.125653397667873     
  -2.00000000000000       -1.68000000000000       0.127838003681735     
  -2.00000000000000       -1.64000000000000       0.130045776113192     
  -2.00000000000000       -1.60000000000000       0.132275132275132     
  -2.00000000000000       -1.56000000000000       0.134524321997417     
  -2.00000000000000       -1.52000000000000       0.136791420442110     
  -2.00000000000000       -1.48000000000000       0.139074321317312     
  -2.00000000000000       -1.44000000000000       0.141370730603936     
  -2.00000000000000       -1.40000000000000       0.143678160919540     
  -2.00000000000000       -1.36000000000000       0.145993926652651     
  -2.00000000000000       -1.32000000000000       0.148315140009492     
  -2.00000000000000       -1.28000000000000       0.150638708122439     
  -2.00000000000000       -1.24000000000000       0.152961331375428     
  -2.00000000000000       -1.20000000000000       0.155279503105590     
  -2.00000000000000       -1.16000000000000       0.157589510842158     
  -2.00000000000000       -1.12000000000000       0.159887439242773     
  -2.00000000000000       -1.08000000000000       0.162169174883238     
  -2.00000000000000       -1.04000000000000       0.164430413049198     
  -2.00000000000000       -1.00000000000000       0.166666666666667     
  -2.00000000000000      -0.960000000000000       0.168873277492570     
  -2.00000000000000      -0.920000000000000       0.171045429666119     
  -2.00000000000000      -0.880000000000000       0.173178165696869     
  -2.00000000000000      -0.840000000000000       0.175266404935502     
  -2.00000000000000      -0.800000000000000       0.177304964539007     
  -2.00000000000000      -0.760000000000000       0.179288582903041     
  -2.00000000000000      -0.720000000000000       0.181211945491447     
  -2.00000000000000      -0.680000000000000       0.183069712946690     
  -2.00000000000000      -0.640000000000000       0.184856551316179     
  -2.00000000000000      -0.600000000000000       0.186567164179104     
  -2.00000000000000      -0.560000000000000       0.188196326407709     
  -2.00000000000000      -0.520000000000000       0.189738919247116     
  -2.00000000000000      -0.480000000000000       0.191189966350566     
  -2.00000000000000      -0.440000000000000       0.192544670363524     
  -2.00000000000000      -0.400000000000000       0.193798449612403     
  -2.00000000000000      -0.360000000000000       0.194946974422957     
  -2.00000000000000      -0.320000000000000       0.195986202571339     
  -2.00000000000000      -0.280000000000000       0.196912413358538     
  -2.00000000000000      -0.240000000000000       0.197722239797532     
  -2.00000000000000      -0.200000000000000       0.198412698412698     
  -2.00000000000000      -0.160000000000000       0.198981216173193     
  -2.00000000000000      -0.120000000000000       0.199425654116145     
  -2.00000000000000      -8.000000000000007E-002  0.199744327261106     
  -2.00000000000000      -4.000000000000004E-002  0.199936020473448     
  -2.00000000000000       0.000000000000000E+000  0.200000000000000     
  -2.00000000000000       4.000000000000004E-002  0.199936020473448     
  -2.00000000000000       8.000000000000007E-002  0.199744327261106     
  -2.00000000000000       0.120000000000000       0.199425654116145     
  -2.00000000000000       0.160000000000000       0.198981216173193     
  -2.00000000000000       0.200000000000000       0.198412698412698     
  -2.00000000000000       0.240000000000000       0.197722239797532     
  -2.00000000000000       0.280000000000000       0.196912413358538     
  -2.00000000000000       0.320000000000000       0.195986202571339     
  -2.00000000000000       0.360000000000000       0.194946974422957     
  -2.00000000000000       0.400000000000000       0.193798449612403     
  -2.00000000000000       0.440000000000000       0.192544670363524     
  -2.00000000000000       0.480000000000000       0.191189966350566     
  -2.00000000000000       0.520000000000000       0.189738919247116     
  -2.00000000000000       0.560000000000000       0.188196326407709     
  -2.00000000000000       0.600000000000000       0.186567164179104     
  -2.00000000000000       0.640000000000000       0.184856551316179     
  -2.00000000000000       0.680000000000000       0.183069712946690     
  -2.00000000000000       0.720000000000000       0.181211945491447     
  -2.00000000000000       0.760000000000000       0.179288582903041     
  -2.00000000000000       0.800000000000000       0.177304964539007     
  -2.00000000000000       0.840000000000000       0.175266404935502     
  -2.00000000000000       0.880000000000000       0.173178165696869     
  -2.00000000000000       0.920000000000000       0.171045429666119     
  -2.00000000000000       0.960000000000000       0.168873277492570     
  -2.00000000000000        1.00000000000000       0.166666666666667     
  -2.00000000000000        1.04000000000000       0.164430413049198     
  -2.00000000000000        1.08000000000000       0.162169174883238     
  -2.00000000000000        1.12000000000000       0.159887439242773     
  -2.00000000000000        1.16000000000000       0.157589510842158     
  -2.00000000000000        1.20000000000000       0.155279503105590     
  -2.00000000000000        1.24000000000000       0.152961331375428     
  -2.00000000000000        1.28000000000000       0.150638708122439     
  -2.00000000000000        1.32000000000000       0.148315140009492     
  -2.00000000000000        1.36000000000000       0.145993926652651     
  -2.00000000000000        1.40000000000000       0.143678160919540     
  -2.00000000000000        1.44000000000000       0.141370730603936     
  -2.00000000000000        1.48000000000000       0.139074321317312     
  -2.00000000000000        1.52000000000000       0.136791420442110     
  -2.00000000000000        1.56000000000000       0.134524321997417     
  -2.00000000000000        1.60000000000000       0.132275132275132     
  -2.00000000000000        1.64000000000000       0.130045776113192     
  -2.00000000000000        1.68000000000000       0.127838003681735     
  -2.00000000000000        1.72000000000000       0.125653397667873     
  -2.00000000000000        1.76000000000000       0.123493380754792     
  -2.00000000000000        1.80000000000000       0.121359223300971     
  -2.00000000000000        1.84000000000000       0.119252051135280     
  -2.00000000000000        1.88000000000000       0.117172853393326     
  -2.00000000000000        1.92000000000000       0.115122490329711     
  -2.00000000000000        1.96000000000000       0.113101701049584     
  -2.00000000000000        2.00000000000000       0.111111111111111     
  -1.96000000000000       -2.00000000000000       0.113101701049584     
  -1.96000000000000       -1.96000000000000       0.115164916159941     
  -1.96000000000000       -1.92000000000000       0.117260787992495     
  -1.96000000000000       -1.88000000000000       0.119388729703916     
  -1.96000000000000       -1.84000000000000       0.121548035783742     
  -1.96000000000000       -1.80000000000000       0.123737873688379     
  -1.96000000000000       -1.76000000000000       0.125957275292221     
  -1.96000000000000       -1.72000000000000       0.128205128205128     
  -1.96000000000000       -1.68000000000000       0.130480167014614     
  -1.96000000000000       -1.64000000000000       0.132780964520926     
  -1.96000000000000       -1.60000000000000       0.135105923043666     
  -1.96000000000000       -1.56000000000000       0.137453265889598     
  -1.96000000000000       -1.52000000000000       0.139821029082774     
  -1.96000000000000       -1.48000000000000       0.142207053469852     
  -1.96000000000000       -1.44000000000000       0.144608977325312     
  -1.96000000000000       -1.40000000000000       0.147024229593037     
  -1.96000000000000       -1.36000000000000       0.149450023912004     
  -1.96000000000000       -1.32000000000000       0.151883353584447     
  -1.96000000000000       -1.28000000000000       0.154320987654321     
  -1.96000000000000       -1.24000000000000       0.156759468271884     
  -1.96000000000000       -1.20000000000000       0.159195109526235     
  -1.96000000000000       -1.16000000000000       0.161623997931213     
  -1.96000000000000       -1.12000000000000       0.164041994750656     
  -1.96000000000000       -1.08000000000000       0.166444740346205     
  -1.96000000000000       -1.04000000000000       0.168827660723933     
  -1.96000000000000       -1.00000000000000       0.171185976444810     
  -1.96000000000000      -0.960000000000000       0.173514714047751     
  -1.96000000000000      -0.920000000000000       0.175808720112518     
  -1.96000000000000      -0.880000000000000       0.178062678062678     
  -1.96000000000000      -0.840000000000000       0.180271127776175     
  -1.96000000000000      -0.800000000000000       0.182428488032691     
  -1.96000000000000      -0.760000000000000       0.184529081783289     
  -1.96000000000000      -0.720000000000000       0.186567164179104     
  -1.96000000000000      -0.680000000000000       0.188536953242836     
  -1.96000000000000      -0.640000000000000       0.190432663010360     
  -1.96000000000000      -0.600000000000000       0.192248538911104     
  -1.96000000000000      -0.560000000000000       0.193978895096214     
  -1.96000000000000      -0.520000000000000       0.195618153364632     
  -1.96000000000000      -0.480000000000000       0.197160883280757     
  -1.96000000000000      -0.440000000000000       0.198601843025103     
  -1.96000000000000      -0.400000000000000       0.199936020473448     
  -1.96000000000000      -0.360000000000000       0.201158673962021     
  -1.96000000000000      -0.320000000000000       0.202265372168285     
  -1.96000000000000      -0.280000000000000       0.203252032520325     
  -1.96000000000000      -0.240000000000000       0.204114957544089     
  -1.96000000000000      -0.200000000000000       0.204850868567683     
  -1.96000000000000      -0.160000000000000       0.205456936226167     
  -1.96000000000000      -0.120000000000000       0.205930807248764     
  -1.96000000000000      -8.000000000000007E-002  0.206270627062706     
  -1.96000000000000      -4.000000000000004E-002  0.206475057813016     
  -1.96000000000000       0.000000000000000E+000  0.206543291473893     
  -1.96000000000000       4.000000000000004E-002  0.206475057813016     
  -1.96000000000000       8.000000000000007E-002  0.206270627062706     
  -1.96000000000000       0.120000000000000       0.205930807248764     
  -1.96000000000000       0.160000000000000       0.205456936226167     
  -1.96000000000000       0.200000000000000       0.204850868567683     
  -1.96000000000000       0.240000000000000       0.204114957544089     
  -1.96000000000000       0.280000000000000       0.203252032520325     
  -1.96000000000000       0.320000000000000       0.202265372168285     
  -1.96000000000000       0.360000000000000       0.201158673962021     
  -1.96000000000000       0.400000000000000       0.199936020473448     
  -1.96000000000000       0.440000000000000       0.198601843025103     
  -1.96000000000000       0.480000000000000       0.197160883280757     
  -1.96000000000000       0.520000000000000       0.195618153364632     
  -1.96000000000000       0.560000000000000       0.193978895096214     
  -1.96000000000000       0.600000000000000       0.192248538911104     
  -1.96000000000000       0.640000000000000       0.190432663010360     
  -1.96000000000000       0.680000000000000       0.188536953242836     
  -1.96000000000000       0.720000000000000       0.186567164179104     
  -1.96000000000000       0.760000000000000       0.184529081783289     
  -1.96000000000000       0.800000000000000       0.182428488032691     
  -1.96000000000000       0.840000000000000       0.180271127776175     
  -1.96000000000000       0.880000000000000       0.178062678062678     
  -1.96000000000000       0.920000000000000       0.175808720112518     
  -1.96000000000000       0.960000000000000       0.173514714047751     
  -1.96000000000000        1.00000000000000       0.171185976444810     
  -1.96000000000000        1.04000000000000       0.168827660723933     
  -1.96000000000000        1.08000000000000       0.166444740346205     
  -1.96000000000000        1.12000000000000       0.164041994750656     
  -1.96000000000000        1.16000000000000       0.161623997931213     
  -1.96000000000000        1.20000000000000       0.159195109526235     
  -1.96000000000000        1.24000000000000       0.156759468271884     
  -1.96000000000000        1.28000000000000       0.154320987654321     
  -1.96000000000000        1.32000000000000       0.151883353584447     
  -1.96000000000000        1.36000000000000       0.149450023912004     
  -1.96000000000000        1.40000000000000       0.147024229593037     
  -1.96000000000000        1.44000000000000       0.144608977325312     
  -1.96000000000000        1.48000000000000       0.142207053469852     
  -1.96000000000000        1.52000000000000       0.139821029082774     
  -1.96000000000000        1.56000000000000       0.137453265889598     
  -1.96000000000000        1.60000000000000       0.135105923043666     
  -1.96000000000000        1.64000000000000       0.132780964520926     
  -1.96000000000000        1.68000000000000       0.130480167014614     
  -1.96000000000000        1.72000000000000       0.128205128205128     
  -1.96000000000000        1.76000000000000       0.125957275292221     
  -1.96000000000000        1.80000000000000       0.123737873688379     
  -1.96000000000000        1.84000000000000       0.121548035783742     
  -1.96000000000000        1.88000000000000       0.119388729703916     
  -1.96000000000000        1.92000000000000       0.117260787992495     
  -1.96000000000000        1.96000000000000       0.115164916159941     
  -1.96000000000000        2.00000000000000       0.113101701049584     
  -1.92000000000000       -2.00000000000000       0.115122490329711     
  -1.92000000000000       -1.96000000000000       0.117260787992495     
  -1.92000000000000       -1.92000000000000       0.119434358876362     
  -1.92000000000000       -1.88000000000000       0.121642662514597     
  -1.92000000000000       -1.84000000000000       0.123885034687810     
  -1.92000000000000       -1.80000000000000       0.126160678239806     
  -1.92000000000000       -1.76000000000000       0.128468653648510     
  -1.92000000000000       -1.72000000000000       0.130807869401423     
  -1.92000000000000       -1.68000000000000       0.133177072235244     
  -1.92000000000000       -1.64000000000000       0.135574837310195     
  -1.92000000000000       -1.60000000000000       0.137999558401413     
  -1.92000000000000       -1.56000000000000       0.140449438202247     
  -1.92000000000000       -1.52000000000000       0.142922478847473     
  -1.92000000000000       -1.48000000000000       0.145416472778036     
  -1.92000000000000       -1.44000000000000       0.147928994082840     
  -1.92000000000000       -1.40000000000000       0.150457390467020     
  -1.92000000000000       -1.36000000000000       0.152998776009792     
  -1.92000000000000       -1.32000000000000       0.155550024888004     
  -1.92000000000000       -1.28000000000000       0.158107766253478     
  -1.92000000000000       -1.24000000000000       0.160668380462725     
  -1.92000000000000       -1.20000000000000       0.163227996866022     
  -1.92000000000000       -1.16000000000000       0.165782493368700     
  -1.92000000000000       -1.12000000000000       0.168327497980070     
  -1.92000000000000       -1.08000000000000       0.170858392564243     
  -1.92000000000000       -1.04000000000000       0.173370319001387     
  -1.92000000000000       -1.00000000000000       0.175858187957231     
  -1.92000000000000      -0.960000000000000       0.178316690442225     
  -1.92000000000000      -0.920000000000000       0.180740312319260     
  -1.92000000000000      -0.880000000000000       0.183123351889833     
  -1.92000000000000      -0.840000000000000       0.185459940652819     
  -1.92000000000000      -0.800000000000000       0.187744067287474     
  -1.92000000000000      -0.760000000000000       0.189969604863222     
  -1.92000000000000      -0.720000000000000       0.192130341223486     
  -1.92000000000000      -0.680000000000000       0.194220012430081     
  -1.92000000000000      -0.640000000000000       0.196232339089482     
  -1.92000000000000      -0.600000000000000       0.198161065313887     
  -1.92000000000000      -0.560000000000000       0.200000000000000     
  -1.92000000000000      -0.520000000000000       0.201743060038735     
  -1.92000000000000      -0.480000000000000       0.203384315001627     
  -1.92000000000000      -0.440000000000000       0.204918032786885     
  -1.92000000000000      -0.400000000000000       0.206338725652030     
  -1.92000000000000      -0.360000000000000       0.207641196013289     
  -1.92000000000000      -0.320000000000000       0.208820581356499     
  -1.92000000000000      -0.280000000000000       0.209872397582270     
  -1.92000000000000      -0.240000000000000       0.210792580101180     
  -1.92000000000000      -0.200000000000000       0.211577522004062     
  -1.92000000000000      -0.160000000000000       0.212224108658744     
  -1.92000000000000      -0.120000000000000       0.212729748127978     
  -1.92000000000000      -8.000000000000007E-002  0.213092396863280     
  -1.92000000000000      -4.000000000000004E-002  0.213310580204778     
  -1.92000000000000       0.000000000000000E+000  0.213383407306248     
  -1.92000000000000       4.000000000000004E-002  0.213310580204778     
  -1.92000000000000       8.000000000000007E-002  0.213092396863280     
  -1.92000000000000       0.120000000000000       0.212729748127978     
  -1.92000000000000       0.160000000000000       0.212224108658744     
  -1.92000000000000       0.200000000000000       0.211577522004062     
  -1.92000000000000       0.240000000000000       0.210792580101180     
  -1.92000000000000       0.280000000000000       0.209872397582270     
  -1.92000000000000       0.320000000000000       0.208820581356499     
  -1.92000000000000       0.360000000000000       0.207641196013289     
  -1.92000000000000       0.400000000000000       0.206338725652030     
  -1.92000000000000       0.440000000000000       0.204918032786885     
  -1.92000000000000       0.480000000000000       0.203384315001627     
  -1.92000000000000       0.520000000000000       0.201743060038735     
  -1.92000000000000       0.560000000000000       0.200000000000000     
  -1.92000000000000       0.600000000000000       0.198161065313887     
  -1.92000000000000       0.640000000000000       0.196232339089482     
  -1.92000000000000       0.680000000000000       0.194220012430081     
  -1.92000000000000       0.720000000000000       0.192130341223486     
  -1.92000000000000       0.760000000000000       0.189969604863222     
  -1.92000000000000       0.800000000000000       0.187744067287474     
  -1.92000000000000       0.840000000000000       0.185459940652819     
  -1.92000000000000       0.880000000000000       0.183123351889833     
  -1.92000000000000       0.920000000000000       0.180740312319260     
  -1.92000000000000       0.960000000000000       0.178316690442225     
  -1.92000000000000        1.00000000000000       0.175858187957231     
  -1.92000000000000        1.04000000000000       0.173370319001387     
  -1.92000000000000        1.08000000000000       0.170858392564243     
  -1.92000000000000        1.12000000000000       0.168327497980070     
  -1.92000000000000        1.16000000000000       0.165782493368700     
  -1.92000000000000        1.20000000000000       0.163227996866022     
  -1.92000000000000        1.24000000000000       0.160668380462725     
  -1.92000000000000        1.28000000000000       0.158107766253478     
  -1.92000000000000        1.32000000000000       0.155550024888004     
  -1.92000000000000        1.36000000000000       0.152998776009792     
  -1.92000000000000        1.40000000000000       0.150457390467020     
  -1.92000000000000        1.44000000000000       0.147928994082840     
  -1.92000000000000        1.48000000000000       0.145416472778036     
  -1.92000000000000        1.52000000000000       0.142922478847473     
  -1.92000000000000        1.56000000000000       0.140449438202247     
  -1.92000000000000        1.60000000000000       0.137999558401413     
  -1.92000000000000        1.64000000000000       0.135574837310195     
  -1.92000000000000        1.68000000000000       0.133177072235244     
  -1.92000000000000        1.72000000000000       0.130807869401423     
  -1.92000000000000        1.76000000000000       0.128468653648510     
  -1.92000000000000        1.80000000000000       0.126160678239806     
  -1.92000000000000        1.84000000000000       0.123885034687810     
  -1.92000000000000        1.88000000000000       0.121642662514597     
  -1.92000000000000        1.92000000000000       0.119434358876362     
  -1.92000000000000        1.96000000000000       0.117260787992495     
  -1.92000000000000        2.00000000000000       0.115122490329711     
  -1.88000000000000       -2.00000000000000       0.117172853393326     
  -1.88000000000000       -1.96000000000000       0.119388729703916     
  -1.88000000000000       -1.92000000000000       0.121642662514597     
  -1.88000000000000       -1.88000000000000       0.123934166170930     
  -1.88000000000000       -1.84000000000000       0.126262626262626     
  -1.88000000000000       -1.80000000000000       0.128627289565754     
  -1.88000000000000       -1.76000000000000       0.131027253668763     
  -1.88000000000000       -1.72000000000000       0.133461456331412     
  -1.88000000000000       -1.68000000000000       0.135928664636799     
  -1.88000000000000       -1.64000000000000       0.138427464008859     
  -1.88000000000000       -1.60000000000000       0.140956247180875     
  -1.88000000000000       -1.56000000000000       0.143513203214696     
  -1.88000000000000       -1.52000000000000       0.146096306685367     
  -1.88000000000000       -1.48000000000000       0.148703307161551     
  -1.88000000000000       -1.44000000000000       0.151331719128329     
  -1.88000000000000       -1.40000000000000       0.153978812515398     
  -1.88000000000000       -1.36000000000000       0.156641604010025     
  -1.88000000000000       -1.32000000000000       0.159316849349987     
  -1.88000000000000       -1.28000000000000       0.162001036806636     
  -1.88000000000000       -1.24000000000000       0.164690382081686     
  -1.88000000000000       -1.20000000000000       0.167380824852705     
  -1.88000000000000       -1.16000000000000       0.170068027210884     
  -1.88000000000000       -1.12000000000000       0.172747374239912     
  -1.88000000000000       -1.08000000000000       0.175413976985686     
  -1.88000000000000       -1.04000000000000       0.178062678062678     
  -1.88000000000000       -1.00000000000000       0.180688060132986     
  -1.88000000000000      -0.960000000000000       0.183284457478006     
  -1.88000000000000      -0.920000000000000       0.185845970859352     
  -1.88000000000000      -0.880000000000000       0.188366485834840     
  -1.88000000000000      -0.840000000000000       0.190839694656489     
  -1.88000000000000      -0.800000000000000       0.193259121830550     
  -1.88000000000000      -0.760000000000000       0.195618153364632     
  -1.88000000000000      -0.720000000000000       0.197910069664345     
  -1.88000000000000      -0.680000000000000       0.200128081972462     
  -1.88000000000000      -0.640000000000000       0.202265372168285     
  -1.88000000000000      -0.600000000000000       0.204315135665250     
  -1.88000000000000      -0.560000000000000       0.206270627062706     
  -1.88000000000000      -0.520000000000000       0.208125208125208     
  -1.88000000000000      -0.480000000000000       0.209872397582270     
  -1.88000000000000      -0.440000000000000       0.211505922165821     
  -1.88000000000000      -0.400000000000000       0.213019768234492     
  -1.88000000000000      -0.360000000000000       0.214408233276158     
  -1.88000000000000      -0.320000000000000       0.215665976535542     
  -1.88000000000000      -0.280000000000000       0.216788067984738     
  -1.88000000000000      -0.240000000000000       0.217770034843206     
  -1.88000000000000      -0.200000000000000       0.218607904861840     
  -1.88000000000000      -0.160000000000000       0.219298245614035     
  -1.88000000000000      -0.120000000000000       0.219838199085473     
  -1.88000000000000      -8.000000000000007E-002  0.220225510923185     
  -1.88000000000000      -4.000000000000004E-002  0.220458553791887     
  -1.88000000000000       0.000000000000000E+000  0.220536344389555     
  -1.88000000000000       4.000000000000004E-002  0.220458553791887     
  -1.88000000000000       8.000000000000007E-002  0.220225510923185     
  -1.88000000000000       0.120000000000000       0.219838199085473     
  -1.88000000000000       0.160000000000000       0.219298245614035     
  -1.88000000000000       0.200000000000000       0.218607904861840     
  -1.88000000000000       0.240000000000000       0.217770034843206     
  -1.88000000000000       0.280000000000000       0.216788067984738     
  -1.88000000000000       0.320000000000000       0.215665976535542     
  -1.88000000000000       0.360000000000000       0.214408233276158     
  -1.88000000000000       0.400000000000000       0.213019768234492     
  -1.88000000000000       0.440000000000000       0.211505922165821     
  -1.88000000000000       0.480000000000000       0.209872397582270     
  -1.88000000000000       0.520000000000000       0.208125208125208     
  -1.88000000000000       0.560000000000000       0.206270627062706     
  -1.88000000000000       0.600000000000000       0.204315135665250     
  -1.88000000000000       0.640000000000000       0.202265372168285     
  -1.88000000000000       0.680000000000000       0.200128081972462     
  -1.88000000000000       0.720000000000000       0.197910069664345     
  -1.88000000000000       0.760000000000000       0.195618153364632     
  -1.88000000000000       0.800000000000000       0.193259121830550     
  -1.88000000000000       0.840000000000000       0.190839694656489     
  -1.88000000000000       0.880000000000000       0.188366485834840     
  -1.88000000000000       0.920000000000000       0.185845970859352     
  -1.88000000000000       0.960000000000000       0.183284457478006     
  -1.88000000000000        1.00000000000000       0.180688060132986     
  -1.88000000000000        1.04000000000000       0.178062678062678     
  -1.88000000000000        1.08000000000000       0.175413976985686     
  -1.88000000000000        1.12000000000000       0.172747374239912     
  -1.88000000000000        1.16000000000000       0.170068027210884     
  -1.88000000000000        1.20000000000000       0.167380824852705     
  -1.88000000000000        1.24000000000000       0.164690382081686     
  -1.88000000000000        1.28000000000000       0.162001036806636     
  -1.88000000000000        1.32000000000000       0.159316849349987     
  -1.88000000000000        1.36000000000000       0.156641604010025     
  -1.88000000000000        1.40000000000000       0.153978812515398     
  -1.88000000000000        1.44000000000000       0.151331719128329     
  -1.88000000000000        1.48000000000000       0.148703307161551     
  -1.88000000000000        1.52000000000000       0.146096306685367     
  -1.88000000000000        1.56000000000000       0.143513203214696     
  -1.88000000000000        1.60000000000000       0.140956247180875     
  -1.88000000000000        1.64000000000000       0.138427464008859     
  -1.88000000000000        1.68000000000000       0.135928664636799     
  -1.88000000000000        1.72000000000000       0.133461456331411     
  -1.88000000000000        1.76000000000000       0.131027253668763     
  -1.88000000000000        1.80000000000000       0.128627289565754     
  -1.88000000000000        1.84000000000000       0.126262626262626     
  -1.88000000000000        1.88000000000000       0.123934166170930     
  -1.88000000000000        1.92000000000000       0.121642662514597     
  -1.88000000000000        1.96000000000000       0.119388729703916     
  -1.88000000000000        2.00000000000000       0.117172853393326     
  -1.84000000000000       -2.00000000000000       0.119252051135280     
  -1.84000000000000       -1.96000000000000       0.121548035783742     
  -1.84000000000000       -1.92000000000000       0.123885034687810     
  -1.84000000000000       -1.88000000000000       0.126262626262626     
  -1.84000000000000       -1.84000000000000       0.128680255301627     