 variables= "x","y","fpcb"
 zone i=          46  datapacking=point
  0.000000000000000E+000  0.000000000000000E+000  0.000000000000000E+000
  0.666587759910300      -0.659516821993266       0.000000000000000E+000
  -1.98563692137795        1.96274246014387       0.000000000000000E+000
   1.97378152116784       -1.98030583162352       0.000000000000000E+000
  -1.99729737173402       -1.98797982799097       0.000000000000000E+000
 -0.422715363389401        1.99919692140921       0.000000000000000E+000
 -0.289884182821646       -1.99260720198347       0.000000000000000E+000
   1.99740544910227      -0.133642964808520       0.000000000000000E+000
   1.46027890678597        1.99439551664471       0.000000000000000E+000
   1.98958373460045       0.837294746458983       0.000000000000000E+000
  -1.99866918716376       0.166886910530406       0.000000000000000E+000
  -1.61795317045616       -1.07133199463649       0.000000000000000E+000
   1.09766934607665        1.06612528788360       0.000000000000000E+000
  -1.39638383362408       0.620499461957448       0.000000000000000E+000
   1.34332235009347       -1.98588807276076       0.000000000000000E+000
   1.98549460823710        1.84545844271154       0.000000000000000E+000
  0.891698855857558        1.99818413456452       0.000000000000000E+000
 -0.876243033567114      -0.983543437351305       0.000000000000000E+000
   1.61532298967285       -1.11362085390920       0.000000000000000E+000
  -1.99018723278438      -0.743092655222893       0.000000000000000E+000
  -1.99247524149373       -1.36952814381105       0.000000000000000E+000
   1.52506020689097       2.205716362116927E-002  0.000000000000000E+000
   1.99888453726150       -1.39294462552294       0.000000000000000E+000
   1.99943852194387      -0.856335966253147       0.000000000000000E+000
 -0.579233075401433       0.975316072432595       0.000000000000000E+000
  -1.53624987730210       -1.99700508931751       0.000000000000000E+000
  -1.55147862075834        1.97734201150196       0.000000000000000E+000
 -0.977861101352995        1.41243781848003       0.000000000000000E+000
  -1.84696977532369        1.40057318103265       0.000000000000000E+000
  0.237143272128264        1.29534602526529       0.000000000000000E+000
  -1.68727967496742      -0.164251170676173       0.000000000000000E+000
  -1.99987206905211       0.998872022369790       0.000000000000000E+000
 -0.854146242068073      -0.109659436330083       0.000000000000000E+000
  0.756707049060864       0.180546637313096       0.000000000000000E+000
  0.587106450540004       -1.59765771648462       0.000000000000000E+000
   1.70318837784878       0.653370899642371       0.000000000000000E+000
 -9.092454904678160E-002 -0.648275722244662       0.000000000000000E+000
  0.135050813183118        1.68245264544266       0.000000000000000E+000
 -6.468126863817458E-002  -1.12303756462127       0.000000000000000E+000
   1.51295281889460        1.29340772293871       0.000000000000000E+000
  0.216772821489255        1.99901675534001       0.000000000000000E+000
 -5.206052159189456E-003  0.749237294038434       0.000000000000000E+000
  0.525720299207618       -1.99628772045797       0.000000000000000E+000
 -0.968435969523844       -1.71312762092517       0.000000000000000E+000
   1.90239248932889        1.42712565914165       0.000000000000000E+000
   1.81630048076486      -0.520804050889621       0.000000000000000E+000
