 variables= "x","y","fpcb"
 zone i=          12  datapacking=point
  4.363323129985824E-002   1.00000000000000       0.000000000000000E+000
  3.189591669207220E-002  0.954685316251818       0.000000000000000E+000
  8.405855634295878E-002  0.759746608060194       0.000000000000000E+000
  5.506000739893496E-002  0.606696282265961       0.000000000000000E+000
  4.377489746964743E-002  0.562597876186505       0.000000000000000E+000
  6.842206039893560E-002   1.49159603120610       0.000000000000000E+000
  1.972487893383579E-002  0.890860190414634       0.000000000000000E+000
  6.214866111379564E-002   1.14176577744721       0.000000000000000E+000
  7.198974855290904E-002  0.839239741787683       0.000000000000000E+000
  1.393324332378916E-002   1.28415846640730       0.000000000000000E+000
  2.423476364425025E-002   1.12407223070746       0.000000000000000E+000
  1.425042513845625E-003   1.37289066098519       0.000000000000000E+000
