 variables= "x","y","fPC"
 zone i=         101  j=         101  datapacking=point
  -2.00000000000000       -2.00000000000000       1.876618578693248E-002
  -2.00000000000000       -1.96000000000000       1.933290257951089E-002
  -2.00000000000000       -1.92000000000000       1.996430243505535E-002
  -2.00000000000000       -1.88000000000000       2.065920488286431E-002
  -2.00000000000000       -1.84000000000000       2.141607502088118E-002
  -2.00000000000000       -1.80000000000000       2.223317937755621E-002
  -2.00000000000000       -1.76000000000000       2.310871621207487E-002
  -2.00000000000000       -1.72000000000000       2.404092301535700E-002
  -2.00000000000000       -1.68000000000000       2.502816377593469E-002
  -2.00000000000000       -1.64000000000000       2.606899838562920E-002
  -2.00000000000000       -1.60000000000000       2.716223637908522E-002
  -2.00000000000000       -1.56000000000000       2.830697702914509E-002
  -2.00000000000000       -1.52000000000000       2.950263765601352E-002
  -2.00000000000000       -1.48000000000000       3.074897185230813E-002
  -2.00000000000000       -1.44000000000000       3.204607917818419E-002
  -2.00000000000000       -1.40000000000000       3.339440774042119E-002
  -2.00000000000000       -1.36000000000000       3.479475093671302E-002
  -2.00000000000000       -1.32000000000000       3.624823952100403E-002
  -2.00000000000000       -1.28000000000000       3.775633002750906E-002
  -2.00000000000000       -1.24000000000000       3.932079047985895E-002
  -2.00000000000000       -1.20000000000000       4.094368420733625E-002
  -2.00000000000000       -1.16000000000000       4.262735249231838E-002
  -2.00000000000000       -1.12000000000000       4.437439668163562E-002
  -2.00000000000000       -1.08000000000000       4.618766030931427E-002
  -2.00000000000000       -1.04000000000000       4.807021169902704E-002
  -2.00000000000000       -1.00000000000000       5.002532744123822E-002
  -2.00000000000000      -0.960000000000000       5.205647707239439E-002
  -2.00000000000000      -0.920000000000000       5.416730922134142E-002
  -2.00000000000000      -0.880000000000000       5.636163943125393E-002
  -2.00000000000000      -0.840000000000000       5.864343981361925E-002
  -2.00000000000000      -0.800000000000000       6.101683064393714E-002
  -2.00000000000000      -0.760000000000000       6.348607396671628E-002
  -2.00000000000000      -0.720000000000000       6.605556923975693E-002
  -2.00000000000000      -0.680000000000000       6.872985101449280E-002
  -2.00000000000000      -0.640000000000000       7.151358862017439E-002
  -2.00000000000000      -0.600000000000000       7.441158779457592E-002
  -2.00000000000000      -0.560000000000000       7.742879418271688E-002
  -2.00000000000000      -0.520000000000000       8.057029860742367E-002
  -2.00000000000000      -0.480000000000000       8.384134400137698E-002
  -2.00000000000000      -0.440000000000000       8.724733387933034E-002
  -2.00000000000000      -0.400000000000000       9.079384222127827E-002
  -2.00000000000000      -0.360000000000000       9.448662463232924E-002
  -2.00000000000000      -0.320000000000000       9.833163064268104E-002
  -2.00000000000000      -0.280000000000000       0.102335017011247     
  -2.00000000000000      -0.240000000000000       0.106503161898938     
  -2.00000000000000      -0.200000000000000       0.110842679782192     
  -2.00000000000000      -0.160000000000000       0.115360436983833     
  -2.00000000000000      -0.120000000000000       0.120063567706653     
  -2.00000000000000      -8.000000000000007E-002  0.124959490464896     
  -2.00000000000000      -4.000000000000004E-002  0.130055924820066     
  -2.00000000000000       0.000000000000000E+000  0.135360908339855     
  -2.00000000000000       4.000000000000004E-002  0.140882813712408     
  -2.00000000000000       8.000000000000007E-002  0.146630365962358     
  -2.00000000000000       0.120000000000000       0.152612659729912     
  -2.00000000000000       0.160000000000000       0.158839176589571     
  -2.00000000000000       0.200000000000000       0.165319802400634     
  -2.00000000000000       0.240000000000000       0.172064844697238     
  -2.00000000000000       0.280000000000000       0.179085050141231     
  -2.00000000000000       0.320000000000000       0.186391622076366     
  -2.00000000000000       0.360000000000000       0.193996238237038     
  -2.00000000000000       0.400000000000000       0.201911068678846     
  -2.00000000000000       0.440000000000000       0.210148794011431     
  -2.00000000000000       0.480000000000000       0.218722624026207     
  -2.00000000000000       0.520000000000000       0.227646316822514     
  -2.00000000000000       0.560000000000000       0.236934198545186     
  -2.00000000000000       0.600000000000000       0.246601183854457     
  -2.00000000000000       0.640000000000000       0.256662797255169     
  -2.00000000000000       0.680000000000000       0.267135195416408     
  -2.00000000000000       0.720000000000000       0.278035190614606     
  -2.00000000000000       0.760000000000000       0.289380275432766     
  -2.00000000000000       0.800000000000000       0.301188648845498     
  -2.00000000000000       0.840000000000000       0.313479243813920     
  -2.00000000000000       0.880000000000000       0.326271756505867     
  -2.00000000000000       0.920000000000000       0.339586677245186     
  -2.00000000000000       0.960000000000000       0.353445323278937     
  -2.00000000000000        1.00000000000000       0.367869873432872     
  -2.00000000000000        1.04000000000000       0.382883404703492     
  -2.00000000000000        1.08000000000000       0.398509930809023     
  -2.00000000000000        1.12000000000000       0.414774442691708     
  -2.00000000000000        1.16000000000000       0.431702950929624     
  -2.00000000000000        1.20000000000000       0.449322529977621     
  -2.00000000000000        1.24000000000000       0.467661364113857     
  -2.00000000000000        1.28000000000000       0.486748794920395     
  -2.00000000000000        1.32000000000000       0.506615370073440     
  -2.00000000000000        1.36000000000000       0.527292893160744     
  -2.00000000000000        1.40000000000000       0.548814474180254     
  -2.00000000000000        1.44000000000000       0.571214580305229     
  -2.00000000000000        1.48000000000000       0.594529086426343     
  -2.00000000000000        1.52000000000000       0.618795324900824     
  -2.00000000000000        1.56000000000000       0.644052133852042     
  -2.00000000000000        1.60000000000000       0.670339903270078     
  -2.00000000000000        1.64000000000000       0.697700618064500     
  -2.00000000000000        1.68000000000000       0.726177897114557     
  -2.00000000000000        1.72000000000000       0.755817027249254     
  -2.00000000000000        1.76000000000000       0.786664990969907     
  -2.00000000000000        1.80000000000000       0.818770486600791     
  -2.00000000000000        1.84000000000000       0.852183939419089     
  -2.00000000000000        1.88000000000000       0.886957502173350     
  -2.00000000000000        1.92000000000000       0.923145043249967     
  -2.00000000000000        1.96000000000000       0.960802120589465     
  -2.00000000000000        2.00000000000000       0.999985939288604     
  -1.96000000000000       -2.00000000000000       1.927294877230443E-002
  -1.96000000000000       -1.96000000000000       1.993501171221961E-002
  -1.96000000000000       -1.92000000000000       2.065092550331374E-002
  -1.96000000000000       -1.88000000000000       2.142105562107145E-002
  -1.96000000000000       -1.84000000000000       2.224527866501296E-002
  -1.96000000000000       -1.80000000000000       2.312314782895005E-002
  -1.96000000000000       -1.76000000000000       2.405403230644181E-002
  -1.96000000000000       -1.72000000000000       2.503723341399137E-002
  -1.96000000000000       -1.68000000000000       2.607208001564473E-002
  -1.96000000000000       -1.64000000000000       2.715800564294406E-002
  -1.96000000000000       -1.60000000000000       2.829460952283134E-002
  -1.96000000000000       -1.56000000000000       2.948170355348016E-002
  -1.96000000000000       -1.52000000000000       3.071934710350641E-002
  -1.96000000000000       -1.48000000000000       3.200787135367360E-002
  -1.96000000000000       -1.44000000000000       3.334789475180280E-002
  -1.96000000000000       -1.40000000000000       3.474033101081831E-002
  -1.96000000000000       -1.36000000000000       3.618639094675650E-002
  -1.96000000000000       -1.32000000000000       3.768757932767380E-002
  -1.96000000000000       -1.28000000000000       3.924568778580354E-002
  -1.96000000000000       -1.24000000000000       4.086278473357768E-002
  -1.96000000000000       -1.20000000000000       4.254120311927868E-002
  -1.96000000000000       -1.16000000000000       4.428352675981781E-002
  -1.96000000000000       -1.12000000000000       4.609257589626228E-002
  -1.96000000000000       -1.08000000000000       4.797139253212678E-002
  -1.96000000000000       -1.04000000000000       4.992322603487091E-002
  -1.96000000000000       -1.00000000000000       5.195151940734496E-002
  -1.96000000000000      -0.960000000000000       5.405989656786890E-002
  -1.96000000000000      -0.920000000000000       5.625215091510293E-002
  -1.96000000000000      -0.880000000000000       5.853223539661399E-002
  -1.96000000000000      -0.840000000000000       6.090425424792345E-002
  -1.96000000000000      -0.800000000000000       6.337245652159326E-002
  -1.96000000000000      -0.760000000000000       6.594123148349294E-002
  -1.96000000000000      -0.720000000000000       6.861510591544827E-002
  -1.96000000000000      -0.680000000000000       7.139874332995895E-002
  -1.96000000000000      -0.640000000000000       7.429694507332255E-002
  -1.96000000000000      -0.600000000000000       7.731465326814824E-002
  -1.96000000000000      -0.560000000000000       8.045695552468700E-002
  -1.96000000000000      -0.520000000000000       8.372909133251627E-002
  -1.96000000000000      -0.480000000000000       8.713646002959186E-002
  -1.96000000000000      -0.440000000000000       9.068463023449781E-002
  -1.96000000000000      -0.400000000000000       9.437935061950832E-002
  -1.96000000000000      -0.360000000000000       9.822656189682626E-002
  -1.96000000000000      -0.320000000000000       0.102232409887733     
  -1.96000000000000      -0.280000000000000       0.106403259544316     
  -1.96000000000000      -0.240000000000000       0.110745709795640     
  -1.96000000000000      -0.200000000000000       0.115266609094612     
  -1.96000000000000      -0.160000000000000       0.119973071548055     
  -1.96000000000000      -0.120000000000000       0.124872493520604     
  -1.96000000000000      -8.000000000000007E-002  0.129972570612641     
  -1.96000000000000      -4.000000000000004E-002  0.135281314923519     
  -1.96000000000000       0.000000000000000E+000  0.140807072523532     
  -1.96000000000000       4.000000000000004E-002  0.146558541071333     
  -1.96000000000000       8.000000000000007E-002  0.152544787527537     
  -1.96000000000000       0.120000000000000       0.158775265929972     
  -1.96000000000000       0.160000000000000       0.165259835211149     
  -1.96000000000000       0.200000000000000       0.172008777053995     
  -1.96000000000000       0.240000000000000       0.179032813797327     
  -1.96000000000000       0.280000000000000       0.186343126417993     
  -1.96000000000000       0.320000000000000       0.193951372631667     
  -1.96000000000000       0.360000000000000       0.201869705168924     
  -1.96000000000000       0.400000000000000       0.210110790297165     
  -1.96000000000000       0.440000000000000       0.218687826672071     
  -1.96000000000000       0.480000000000000       0.227614564614333     
  -1.96000000000000       0.520000000000000       0.236905325918224     
  -1.96000000000000       0.560000000000000       0.246575024308041     
  -1.96000000000000       0.600000000000000       0.256639186666238     
  -1.96000000000000       0.640000000000000       0.267113975163141     
  -1.96000000000000       0.680000000000000       0.278016210422211     
  -1.96000000000000       0.720000000000000       0.289363395856719     
  -1.96000000000000       0.760000000000000       0.301173743313293     
  -1.96000000000000       0.800000000000000       0.313466200154827     
  -1.96000000000000       0.840000000000000       0.326260477909582     
  -1.96000000000000       0.880000000000000       0.339577082604710     
  -1.96000000000000       0.920000000000000       0.353437346890792     
  -1.96000000000000       0.960000000000000       0.367863464049027     
  -1.96000000000000        1.00000000000000       0.382878523954305     
  -1.96000000000000        1.04000000000000       0.398506551045327     
  -1.96000000000000        1.08000000000000       0.414772544327100     
  -1.96000000000000        1.12000000000000       0.431702519401139     
  -1.96000000000000        1.16000000000000       0.449323552484682     
  -1.96000000000000        1.20000000000000       0.467663826341615     
  -1.96000000000000        1.24000000000000       0.486752678004803     
  -1.96000000000000        1.28000000000000       0.506620648121569     
  -1.96000000000000        1.32000000000000       0.527299531701316     
  -1.96000000000000        1.36000000000000       0.548822429986280     
  -1.96000000000000        1.40000000000000       0.571223803103141     
  -1.96000000000000        1.44000000000000       0.594539523084401     
  -1.96000000000000        1.48000000000000       0.618806926773962     
  -1.96000000000000        1.52000000000000       0.644064868050905     
  -1.96000000000000        1.56000000000000       0.670353768719075     
  -1.96000000000000        1.60000000000000       0.697715667317262     
  -1.96000000000000        1.64000000000000       0.726194265005724     
  -1.96000000000000        1.68000000000000       0.755834967578869     
  -1.96000000000000        1.72000000000000       0.786684922541393     
  -1.96000000000000        1.76000000000000       0.818793050065479     
  -1.96000000000000        1.80000000000000       0.852210066519911     
  -1.96000000000000        1.84000000000000       0.886988499127669     
  -1.96000000000000        1.88000000000000       0.923182690166916     
  -1.96000000000000        1.92000000000000       0.960848788980683     
  -1.96000000000000        1.96000000000000        1.00004472990318     
  -1.96000000000000        2.00000000000000        1.04083019404500     
  -1.92000000000000       -2.00000000000000       1.989135939642693E-002
  -1.92000000000000       -1.96000000000000       2.063748370913153E-002
  -1.92000000000000       -1.92000000000000       2.142855966026486E-002
  -1.92000000000000       -1.88000000000000       2.226630958934517E-002
  -1.92000000000000       -1.84000000000000       2.315184664236600E-002
  -1.92000000000000       -1.80000000000000       2.408584909084593E-002
  -1.92000000000000       -1.76000000000000       2.506870811293287E-002
  -1.92000000000000       -1.72000000000000       2.610065183839209E-002
  -1.92000000000000       -1.68000000000000       2.718184825997538E-002
  -1.92000000000000       -1.64000000000000       2.831248942340702E-002
  -1.92000000000000       -1.60000000000000       2.949285912637679E-002
  -1.92000000000000       -1.56000000000000       3.072338618379778E-002
  -1.92000000000000       -1.52000000000000       3.200468515157359E-002
  -1.92000000000000       -1.48000000000000       3.333758624430595E-002
  -1.92000000000000       -1.44000000000000       3.472315603346601E-002
  -1.92000000000000       -1.40000000000000       3.616271037137206E-002
  -1.92000000000000       -1.36000000000000       3.765782085265276E-002
  -1.92000000000000       -1.32000000000000       3.921031599864417E-002
  -1.92000000000000       -1.28000000000000       4.082227823104442E-002
  -1.92000000000000       -1.24000000000000       4.249603758906371E-002
  -1.92000000000000       -1.20000000000000       4.423416303897170E-002
  -1.92000000000000       -1.16000000000000       4.603945212628873E-002
  -1.92000000000000       -1.12000000000000       4.791491962858437E-002
  -1.92000000000000       -1.08000000000000       4.986378578082985E-002
  -1.92000000000000       -1.04000000000000       5.188946456530197E-002
  -1.92000000000000       -1.00000000000000       5.399555248392886E-002
  -1.92000000000000      -0.960000000000000       5.618581816257228E-002
  -1.92000000000000      -0.920000000000000       5.846419307381701E-002
  -1.92000000000000      -0.880000000000000       6.083476360724312E-002
  -1.92000000000000      -0.840000000000000       6.330176466368506E-002
  -1.92000000000000      -0.800000000000000       6.586957490241867E-002
  -1.92000000000000      -0.760000000000000       6.854271372746278E-002
  -1.92000000000000      -0.720000000000000       7.132584006091648E-002
  -1.92000000000000      -0.680000000000000       7.422375291743638E-002
  -1.92000000000000      -0.640000000000000       7.724139376429891E-002
  -1.92000000000000      -0.600000000000000       8.038385062581468E-002
  -1.92000000000000      -0.560000000000000       8.365636386906938E-002
  -1.92000000000000      -0.520000000000000       8.706433358973552E-002
  -1.92000000000000      -0.480000000000000       9.061332850195285E-002
  -1.92000000000000      -0.440000000000000       9.430909622479035E-002
  -1.92000000000000      -0.400000000000000       9.815757484935665E-002
  -1.92000000000000      -0.360000000000000       0.102164905665116     
  -1.92000000000000      -0.320000000000000       0.106337446921103     
  -1.92000000000000      -0.280000000000000       0.110681788497422     
  -1.92000000000000      -0.240000000000000       0.115204767364424     
  -1.92000000000000      -0.200000000000000       0.119913483711062     
  -1.92000000000000      -0.160000000000000       0.124815317630074     
  -1.92000000000000      -0.120000000000000       0.129917946255464     
  -1.92000000000000      -8.000000000000007E-002  0.135229361257209     
  -1.92000000000000      -4.000000000000004E-002  0.140757886608967     
  -1.92000000000000       0.000000000000000E+000  0.146512196556596     
  -1.92000000000000       4.000000000000004E-002  0.152501333728363     
  -1.92000000000000       8.000000000000007E-002  0.158734727341631     
  -1.92000000000000       0.120000000000000       0.165222211475352     
  -1.92000000000000       0.160000000000000       0.171974043392722     
  -1.92000000000000       0.200000000000000       0.179000921913621     
  -1.92000000000000       0.240000000000000       0.186314005851857     
  -1.92000000000000       0.280000000000000       0.193924932547507     
  -1.92000000000000       0.320000000000000       0.201845836539628     
  -1.92000000000000       0.360000000000000       0.210089368439160     
  -1.92000000000000       0.400000000000000       0.218668714075705     
  -1.92000000000000       0.440000000000000       0.227597614004857     
  -1.92000000000000       0.480000000000000       0.236890383474822     
  -1.92000000000000       0.520000000000000       0.246561932961755     
  -1.92000000000000       0.560000000000000       0.256627789392710     
  -1.92000000000000       0.600000000000000       0.267104118182794     
  -1.92000000000000       0.640000000000000       0.278007746219215     
  -1.92000000000000       0.680000000000000       0.289356185928871     
  -1.92000000000000       0.720000000000000       0.301167660568109     
  -1.92000000000000       0.760000000000000       0.313461130872783     
  -1.92000000000000       0.800000000000000       0.326256323203817     
  -1.92000000000000       0.840000000000000       0.339573759317803     
  -1.92000000000000       0.880000000000000       0.353434787883596     
  -1.92000000000000       0.920000000000000       0.367861617854229     
  -1.92000000000000       0.960000000000000       0.382877353788567     
  -1.92000000000000        1.00000000000000       0.398506033198753     
  -1.92000000000000        1.04000000000000       0.414772665977481     
  -1.92000000000000        1.08000000000000       0.431703275933301     
  -1.92000000000000        1.12000000000000       0.449324944432351     
  -1.92000000000000        1.16000000000000       0.467665856110797     
  -1.92000000000000        1.20000000000000       0.486755346583903     
  -1.92000000000000        1.24000000000000       0.506623952034586     
  -1.92000000000000        1.28000000000000       0.527303460516582     
  -1.92000000000000        1.32000000000000       0.548826964754632     
  -1.92000000000000        1.36000000000000       0.571228916166248     
  -1.92000000000000        1.40000000000000       0.594545179766439     
  -1.92000000000000        1.44000000000000       0.618813089548160     
  -1.92000000000000        1.48000000000000       0.644071503856828     
  -1.92000000000000        1.52000000000000       0.670360860197043     
  -1.92000000000000        1.56000000000000       0.697723228823343     
  -1.92000000000000        1.60000000000000       0.726202364374287     
  -1.92000000000000        1.64000000000000       0.755843754710100     
  -1.92000000000000        1.68000000000000       0.786694666008601     
  -1.92000000000000        1.72000000000000       0.818804183061607     
  -1.92000000000000        1.76000000000000       0.852223243594646     
  -1.92000000000000        1.80000000000000       0.887004665306190     
  -1.92000000000000        1.84000000000000       0.923203164188610     
  -1.92000000000000        1.88000000000000       0.960875362551552     
  -1.92000000000000        1.92000000000000        1.00007978501917     
  -1.92000000000000        1.96000000000000        1.04087684061538     
  -1.92000000000000        2.00000000000000        1.08332878888602     
  -1.88000000000000       -2.00000000000000       2.060186706768506E-002
  -1.88000000000000       -1.96000000000000       2.142250330263499E-002
  -1.88000000000000       -1.92000000000000       2.228093440068377E-002
  -1.88000000000000       -1.88000000000000       2.318006639249005E-002
  -1.88000000000000       -1.84000000000000       2.412208901363161E-002
  -1.88000000000000       -1.80000000000000       2.510865815014156E-002
  -1.88000000000000       -1.76000000000000       2.614105130190010E-002
  -1.88000000000000       -1.72000000000000       2.722029888432169E-002
  -1.88000000000000       -1.68000000000000       2.834729398889766E-002
  -1.88000000000000       -1.64000000000000       2.952288303238862E-002
  -1.88000000000000       -1.60000000000000       3.074793954213362E-002
  -1.88000000000000       -1.56000000000000       3.202342315130174E-002
  -1.88000000000000       -1.52000000000000       3.335042571243298E-002
  -1.88000000000000       -1.48000000000000       3.473020628031240E-002
  -1.88000000000000       -1.44000000000000       3.616421656587502E-002
  -1.88000000000000       -1.40000000000000       3.765411832116062E-002
  -1.88000000000000       -1.36000000000000       3.920179398127355E-002
  -1.88000000000000       -1.32000000000000       4.080935176260844E-002
  -1.88000000000000       -1.28000000000000       4.247912629703201E-002
  -1.88000000000000       -1.24000000000000       4.421367576923527E-002
  -1.88000000000000       -1.20000000000000       4.601577641871440E-002
  -1.88000000000000       -1.16000000000000       4.788841516874386E-002
  -1.88000000000000       -1.12000000000000       4.983478105207406E-002
  -1.88000000000000       -1.08000000000000       5.185825601664350E-002
  -1.88000000000000       -1.04000000000000       5.396240561429063E-002
  -1.88000000000000       -1.00000000000000       5.615097000095134E-002
  -1.88000000000000      -0.960000000000000       5.842785560808470E-002
  -1.88000000000000      -0.920000000000000       6.079712778178186E-002
  -1.88000000000000      -0.880000000000000       6.326300462808387E-002
  -1.88000000000000      -0.840000000000000       6.582985225020108E-002
  -1.88000000000000      -0.800000000000000       6.850218151546372E-002
  -1.88000000000000      -0.760000000000000       7.128464644673099E-002
  -1.88000000000000      -0.720000000000000       7.418204429443573E-002
  -1.88000000000000      -0.680000000000000       7.719931731128789E-002
  -1.88000000000000      -0.640000000000000       8.034155622173741E-002
  -1.88000000000000      -0.600000000000000       8.361400535230952E-002
  -1.88000000000000      -0.560000000000000       8.702206936686373E-002
  -1.88000000000000      -0.520000000000000       9.057132153232922E-002
  -1.88000000000000      -0.480000000000000       9.426751342545166E-002
  -1.88000000000000      -0.440000000000000       9.811658597935935E-002
  -1.88000000000000      -0.400000000000000       0.102124681760057     
  -1.88000000000000      -0.360000000000000       0.106298158357215     
  -1.88000000000000      -0.320000000000000       0.110643602770524     
  -1.88000000000000      -0.280000000000000       0.115167846672371     
  -1.88000000000000      -0.240000000000000       0.119877982429357     
  -1.88000000000000      -0.200000000000000       0.124781379769140     
  -1.88000000000000      -0.160000000000000       0.129885702984968     
  -1.88000000000000      -0.120000000000000       0.135198928577961     
  -1.88000000000000      -8.000000000000007E-002  0.140729363246457     
  -1.88000000000000      -4.000000000000004E-002  0.146485662142409     
  -1.88000000000000       0.000000000000000E+000  0.152476847326711     
  -1.88000000000000       4.000000000000004E-002  0.158712326368241     
  -1.88000000000000       8.000000000000007E-002  0.165201911045160     
  -1.88000000000000       0.120000000000000       0.171955836121449     
  -1.88000000000000       0.160000000000000       0.178984778186510     
  -1.88000000000000       0.200000000000000       0.186299874560871     
  -1.88000000000000       0.240000000000000       0.193912742286266     
  -1.88000000000000       0.280000000000000       0.201835497233563     
  -1.88000000000000       0.320000000000000       0.210080773376896     
  -1.88000000000000       0.360000000000000       0.218661742296821     
  -1.88000000000000       0.400000000000000       0.227592132989083     
  -1.88000000000000       0.440000000000000       0.236886252068550     
  -1.88000000000000       0.480000000000000       0.246559004469810     
  -1.88000000000000       0.520000000000000       0.256625914756640     
  -1.88000000000000       0.560000000000000       0.267103149161903     
  -1.88000000000000       0.600000000000000       0.278007538487171     
  -1.88000000000000       0.640000000000000       0.289356601997364     
  -1.88000000000000       0.680000000000000       0.301168572449709     
  -1.88000000000000       0.720000000000000       0.313462422398246     
  -1.88000000000000       0.760000000000000       0.326257891914630     
  -1.88000000000000       0.800000000000000       0.339575517863062     
  -1.88000000000000       0.840000000000000       0.353436664861511     
  -1.88000000000000       0.880000000000000       0.367863558052864     
  -1.88000000000000       0.920000000000000       0.382879317798029     
  -1.88000000000000       0.960000000000000       0.398507996388139     
  -1.88000000000000        1.00000000000000       0.414774616854715     
  -1.88000000000000        1.04000000000000       0.431705213934664     
  -1.88000000000000        1.08000000000000       0.449326877221261     
  -1.88000000000000        1.12000000000000       0.467667796502460     
  -1.88000000000000        1.16000000000000       0.486757309253951     
  -1.88000000000000        1.20000000000000       0.506625950216004     
  -1.88000000000000        1.24000000000000       0.527305502940266     
  -1.88000000000000        1.28000000000000       0.548829053145014     
  -1.88000000000000        1.32000000000000       0.571231043664761     
  -1.88000000000000        1.36000000000000       0.594547330722405     
  -1.88000000000000        1.40000000000000       0.618815241189093     
  -1.88000000000000        1.44000000000000       0.644073630428432     
  -1.88000000000000        1.48000000000000       0.670362940247469     
  -1.88000000000000        1.52000000000000       0.697725256396809     
  -1.88000000000000        1.56000000000000       0.726204364976065     
  -1.88000000000000        1.60000000000000       0.755845807008503     
  -1.88000000000000        1.64000000000000       0.786696930349900     
  -1.88000000000000        1.68000000000000       0.818806937991236     
  -1.88000000000000        1.72000000000000       0.852226931702588     
  -1.88000000000000        1.76000000000000       0.887009949846424     
  -1.88000000000000        1.80000000000000       0.923210998062059     
  -1.88000000000000        1.84000000000000       0.960887071389316     
  -1.88000000000000        1.88000000000000        1.00009716625812     
  -1.88000000000000        1.92000000000000        1.04090228062172     
  -1.88000000000000        1.96000000000000        1.08336540035433     
  -1.88000000000000        2.00000000000000        1.12755146986875     
  -1.84000000000000       -2.00000000000000       2.138913508106419E-002
  -1.84000000000000       -1.96000000000000       2.227628612600701E-002
  -1.84000000000000       -1.92000000000000       2.319564168450836E-002
  -1.84000000000000       -1.88000000000000       2.415113330325944E-002
  -1.84000000000000       -1.84000000000000       2.514588147660836E-002