 variables= "x","y","fPC"
 zone i=         101  j=         101  datapacking=point
  -2.00000000000000       -2.00000000000000        3608.99999999076     
  -2.00000000000000       -1.96000000000000        3561.15999999856     
  -2.00000000000000       -1.92000000000000        3513.64000000334     
  -2.00000000000000       -1.88000000000000        3466.44000000597     
  -2.00000000000000       -1.84000000000000        3419.56000000709     
  -2.00000000000000       -1.80000000000000        3373.00000000723     
  -2.00000000000000       -1.76000000000000        3326.76000000677     
  -2.00000000000000       -1.72000000000000        3280.84000000597     
  -2.00000000000000       -1.68000000000000        3235.24000000504     
  -2.00000000000000       -1.64000000000000        3189.96000000412     
  -2.00000000000000       -1.60000000000000        3145.00000000327     
  -2.00000000000000       -1.56000000000000        3100.36000000255     
  -2.00000000000000       -1.52000000000000        3056.04000000198     
  -2.00000000000000       -1.48000000000000        3012.04000000154     
  -2.00000000000000       -1.44000000000000        2968.36000000124     
  -2.00000000000000       -1.40000000000000        2925.00000000105     
  -2.00000000000000       -1.36000000000000        2881.96000000095     
  -2.00000000000000       -1.32000000000000        2839.24000000091     
  -2.00000000000000       -1.28000000000000        2796.84000000091     
  -2.00000000000000       -1.24000000000000        2754.76000000093     
  -2.00000000000000       -1.20000000000000        2713.00000000096     
  -2.00000000000000       -1.16000000000000        2671.56000000098     
  -2.00000000000000       -1.12000000000000        2630.44000000099     
  -2.00000000000000       -1.08000000000000        2589.64000000098     
  -2.00000000000000       -1.04000000000000        2549.16000000095     
  -2.00000000000000       -1.00000000000000        2509.00000000090     
  -2.00000000000000      -0.960000000000000        2469.16000000084     
  -2.00000000000000      -0.920000000000000        2429.64000000076     
  -2.00000000000000      -0.880000000000000        2390.44000000069     
  -2.00000000000000      -0.840000000000000        2351.56000000062     
  -2.00000000000000      -0.800000000000000        2313.00000000055     
  -2.00000000000000      -0.760000000000000        2274.76000000050     
  -2.00000000000000      -0.720000000000000        2236.84000000047     
  -2.00000000000000      -0.680000000000000        2199.24000000046     
  -2.00000000000000      -0.640000000000000        2161.96000000048     
  -2.00000000000000      -0.600000000000000        2125.00000000052     
  -2.00000000000000      -0.560000000000000        2088.36000000059     
  -2.00000000000000      -0.520000000000000        2052.04000000068     
  -2.00000000000000      -0.480000000000000        2016.04000000078     
  -2.00000000000000      -0.440000000000000        1980.36000000090     
  -2.00000000000000      -0.400000000000000        1945.00000000103     
  -2.00000000000000      -0.360000000000000        1909.96000000116     
  -2.00000000000000      -0.320000000000000        1875.24000000128     
  -2.00000000000000      -0.280000000000000        1840.84000000140     
  -2.00000000000000      -0.240000000000000        1806.76000000149     
  -2.00000000000000      -0.200000000000000        1773.00000000156     
  -2.00000000000000      -0.160000000000000        1739.56000000161     
  -2.00000000000000      -0.120000000000000        1706.44000000162     
  -2.00000000000000      -8.000000000000007E-002   1673.64000000159     
  -2.00000000000000      -4.000000000000004E-002   1641.16000000153     
  -2.00000000000000       0.000000000000000E+000   1609.00000000143     
  -2.00000000000000       4.000000000000004E-002   1577.16000000129     
  -2.00000000000000       8.000000000000007E-002   1545.64000000112     
  -2.00000000000000       0.120000000000000        1514.44000000092     
  -2.00000000000000       0.160000000000000        1483.56000000069     
  -2.00000000000000       0.200000000000000        1453.00000000044     
  -2.00000000000000       0.240000000000000        1422.76000000018     
  -2.00000000000000       0.280000000000000        1392.83999999991     
  -2.00000000000000       0.320000000000000        1363.23999999964     
  -2.00000000000000       0.360000000000000        1333.95999999938     
  -2.00000000000000       0.400000000000000        1304.99999999915     
  -2.00000000000000       0.440000000000000        1276.35999999893     
  -2.00000000000000       0.480000000000000        1248.03999999875     
  -2.00000000000000       0.520000000000000        1220.03999999861     
  -2.00000000000000       0.560000000000000        1192.35999999852     
  -2.00000000000000       0.600000000000000        1164.99999999847     
  -2.00000000000000       0.640000000000000        1137.95999999847     
  -2.00000000000000       0.680000000000000        1111.23999999853     
  -2.00000000000000       0.720000000000000        1084.83999999863     
  -2.00000000000000       0.760000000000000        1058.75999999878     
  -2.00000000000000       0.800000000000000        1032.99999999898     
  -2.00000000000000       0.840000000000000        1007.55999999921     
  -2.00000000000000       0.880000000000000        982.439999999464     
  -2.00000000000000       0.920000000000000        957.639999999743     
  -2.00000000000000       0.960000000000000        933.160000000034     
  -2.00000000000000        1.00000000000000        909.000000000326     
  -2.00000000000000        1.04000000000000        885.160000000609     
  -2.00000000000000        1.08000000000000        861.640000000875     
  -2.00000000000000        1.12000000000000        838.440000001114     
  -2.00000000000000        1.16000000000000        815.560000001320     
  -2.00000000000000        1.20000000000000        793.000000001487     
  -2.00000000000000        1.24000000000000        770.760000001612     
  -2.00000000000000        1.28000000000000        748.840000001695     
  -2.00000000000000        1.32000000000000        727.240000001739     
  -2.00000000000000        1.36000000000000        705.960000001747     
  -2.00000000000000        1.40000000000000        685.000000001731     
  -2.00000000000000        1.44000000000000        664.360000001703     
  -2.00000000000000        1.48000000000000        644.040000001675     
  -2.00000000000000        1.52000000000000        624.040000001662     
  -2.00000000000000        1.56000000000000        604.360000001683     
  -2.00000000000000        1.60000000000000        585.000000001754     
  -2.00000000000000        1.64000000000000        565.960000001884     
  -2.00000000000000        1.68000000000000        547.240000002083     
  -2.00000000000000        1.72000000000000        528.840000002349     
  -2.00000000000000        1.76000000000000        510.760000002669     
  -2.00000000000000        1.80000000000000        493.000000003010     
  -2.00000000000000        1.84000000000000        475.560000003322     
  -2.00000000000000        1.88000000000000        458.440000003523     
  -2.00000000000000        1.92000000000000        441.640000003497     
  -2.00000000000000        1.96000000000000        425.160000003084     
  -2.00000000000000        2.00000000000000        409.000000002069     
  -1.96000000000000       -2.00000000000000        3421.19065599054     
  -1.96000000000000       -1.96000000000000        3374.61785599807     
  -1.96000000000000       -1.92000000000000        3328.36505600268     
  -1.96000000000000       -1.88000000000000        3282.43225600521     
  -1.96000000000000       -1.84000000000000        3236.81945600629     
  -1.96000000000000       -1.80000000000000        3191.52665600643     
  -1.96000000000000       -1.76000000000000        3146.55385600599     
  -1.96000000000000       -1.72000000000000        3101.90105600525     
  -1.96000000000000       -1.68000000000000        3057.56825600439     
  -1.96000000000000       -1.64000000000000        3013.55545600353     
  -1.96000000000000       -1.60000000000000        2969.86265600275     
  -1.96000000000000       -1.56000000000000        2926.48985600210     
  -1.96000000000000       -1.52000000000000        2883.43705600159     
  -1.96000000000000       -1.48000000000000        2840.70425600121     
  -1.96000000000000       -1.44000000000000        2798.29145600096     
  -1.96000000000000       -1.40000000000000        2756.19865600081     
  -1.96000000000000       -1.36000000000000        2714.42585600074     
  -1.96000000000000       -1.32000000000000        2672.97305600073     
  -1.96000000000000       -1.28000000000000        2631.84025600075     
  -1.96000000000000       -1.24000000000000        2591.02745600078     
  -1.96000000000000       -1.20000000000000        2550.53465600082     
  -1.96000000000000       -1.16000000000000        2510.36185600084     
  -1.96000000000000       -1.12000000000000        2470.50905600084     
  -1.96000000000000       -1.08000000000000        2430.97625600082     
  -1.96000000000000       -1.04000000000000        2391.76345600077     
  -1.96000000000000       -1.00000000000000        2352.87065600071     
  -1.96000000000000      -0.960000000000000        2314.29785600063     
  -1.96000000000000      -0.920000000000000        2276.04505600053     
  -1.96000000000000      -0.880000000000000        2238.11225600043     
  -1.96000000000000      -0.840000000000000        2200.49945600034     
  -1.96000000000000      -0.800000000000000        2163.20665600025     
  -1.96000000000000      -0.760000000000000        2126.23385600018     
  -1.96000000000000      -0.720000000000000        2089.58105600012     
  -1.96000000000000      -0.680000000000000        2053.24825600010     
  -1.96000000000000      -0.640000000000000        2017.23545600009     
  -1.96000000000000      -0.600000000000000        1981.54265600012     
  -1.96000000000000      -0.560000000000000        1946.16985600017     
  -1.96000000000000      -0.520000000000000        1911.11705600025     
  -1.96000000000000      -0.480000000000000        1876.38425600035     
  -1.96000000000000      -0.440000000000000        1841.97145600047     
  -1.96000000000000      -0.400000000000000        1807.87865600059     
  -1.96000000000000      -0.360000000000000        1774.10585600073     
  -1.96000000000000      -0.320000000000000        1740.65305600086     
  -1.96000000000000      -0.280000000000000        1707.52025600099     
  -1.96000000000000      -0.240000000000000        1674.70745600110     
  -1.96000000000000      -0.200000000000000        1642.21465600120     
  -1.96000000000000      -0.160000000000000        1610.04185600127     
  -1.96000000000000      -0.120000000000000        1578.18905600132     
  -1.96000000000000      -8.000000000000007E-002   1546.65625600133     
  -1.96000000000000      -4.000000000000004E-002   1515.44345600130     
  -1.96000000000000       0.000000000000000E+000   1484.55065600125     
  -1.96000000000000       4.000000000000004E-002   1453.97785600116     
  -1.96000000000000       8.000000000000007E-002   1423.72505600103     
  -1.96000000000000       0.120000000000000        1393.79225600088     
  -1.96000000000000       0.160000000000000        1364.17945600070     
  -1.96000000000000       0.200000000000000        1334.88665600051     
  -1.96000000000000       0.240000000000000        1305.91385600029     
  -1.96000000000000       0.280000000000000        1277.26105600008     
  -1.96000000000000       0.320000000000000        1248.92825599986     
  -1.96000000000000       0.360000000000000        1220.91545599965     
  -1.96000000000000       0.400000000000000        1193.22265599945     
  -1.96000000000000       0.440000000000000        1165.84985599928     
  -1.96000000000000       0.480000000000000        1138.79705599913     
  -1.96000000000000       0.520000000000000        1112.06425599902     
  -1.96000000000000       0.560000000000000        1085.65145599894     
  -1.96000000000000       0.600000000000000        1059.55865599891     
  -1.96000000000000       0.640000000000000        1033.78585599892     
  -1.96000000000000       0.680000000000000        1008.33305599897     
  -1.96000000000000       0.720000000000000        983.200255999063     
  -1.96000000000000       0.760000000000000        958.387455999192     
  -1.96000000000000       0.800000000000000        933.894655999356     
  -1.96000000000000       0.840000000000000        909.721855999546     
  -1.96000000000000       0.880000000000000        885.869055999755     
  -1.96000000000000       0.920000000000000        862.336255999976     
  -1.96000000000000       0.960000000000000        839.123456000202     
  -1.96000000000000        1.00000000000000        816.230656000420     
  -1.96000000000000        1.04000000000000        793.657856000622     
  -1.96000000000000        1.08000000000000        771.405056000800     
  -1.96000000000000        1.12000000000000        749.472256000946     
  -1.96000000000000        1.16000000000000        727.859456001055     
  -1.96000000000000        1.20000000000000        706.566656001122     
  -1.96000000000000        1.24000000000000        685.593856001147     
  -1.96000000000000        1.28000000000000        664.941056001130     
  -1.96000000000000        1.32000000000000        644.608256001075     
  -1.96000000000000        1.36000000000000        624.595456000989     
  -1.96000000000000        1.40000000000000        604.902656000885     
  -1.96000000000000        1.44000000000000        585.529856000775     
  -1.96000000000000        1.48000000000000        566.477056000674     
  -1.96000000000000        1.52000000000000        547.744256000602     
  -1.96000000000000        1.56000000000000        529.331456000575     
  -1.96000000000000        1.60000000000000        511.238656000612     
  -1.96000000000000        1.64000000000000        493.465856000726     
  -1.96000000000000        1.68000000000000        476.013056000926     
  -1.96000000000000        1.72000000000000        458.880256001213     
  -1.96000000000000        1.76000000000000        442.067456001574     
  -1.96000000000000        1.80000000000000        425.574656001979     
  -1.96000000000000        1.84000000000000        409.401856002379     
  -1.96000000000000        1.88000000000000        393.549056002692     
  -1.96000000000000        1.92000000000000        378.016256002805     
  -1.96000000000000        1.96000000000000        362.803456002558     
  -1.96000000000000        2.00000000000000        347.910656001739     
  -1.92000000000000       -2.00000000000000        3242.04089599000     
  -1.92000000000000       -1.96000000000000        3196.70969599728     
  -1.92000000000000       -1.92000000000000        3151.69849600173     
  -1.92000000000000       -1.88000000000000        3107.00729600418     
  -1.92000000000000       -1.84000000000000        3062.63609600523     
  -1.92000000000000       -1.80000000000000        3018.58489600538     
  -1.92000000000000       -1.76000000000000        2974.85369600499     
  -1.92000000000000       -1.72000000000000        2931.44249600430     
  -1.92000000000000       -1.68000000000000        2888.35129600351     
  -1.92000000000000       -1.64000000000000        2845.58009600272     
  -1.92000000000000       -1.60000000000000        2803.12889600202     
  -1.92000000000000       -1.56000000000000        2760.99769600144     
  -1.92000000000000       -1.52000000000000        2719.18649600100     
  -1.92000000000000       -1.48000000000000        2677.69529600069     
  -1.92000000000000       -1.44000000000000        2636.52409600050     
  -1.92000000000000       -1.40000000000000        2595.67289600040     
  -1.92000000000000       -1.36000000000000        2555.14169600037     
  -1.92000000000000       -1.32000000000000        2514.93049600039     
  -1.92000000000000       -1.28000000000000        2475.03929600044     
  -1.92000000000000       -1.24000000000000        2435.46809600050     
  -1.92000000000000       -1.20000000000000        2396.21689600054     
  -1.92000000000000       -1.16000000000000        2357.28569600057     
  -1.92000000000000       -1.12000000000000        2318.67449600058     
  -1.92000000000000       -1.08000000000000        2280.38329600056     
  -1.92000000000000       -1.04000000000000        2242.41209600050     
  -1.92000000000000       -1.00000000000000        2204.76089600043     
  -1.92000000000000      -0.960000000000000        2167.42969600033     
  -1.92000000000000      -0.920000000000000        2130.41849600023     
  -1.92000000000000      -0.880000000000000        2093.72729600011     
  -1.92000000000000      -0.840000000000000        2057.35609600000     
  -1.92000000000000      -0.800000000000000        2021.30489599990     
  -1.92000000000000      -0.760000000000000        1985.57369599981     
  -1.92000000000000      -0.720000000000000        1950.16249599974     
  -1.92000000000000      -0.680000000000000        1915.07129599970     
  -1.92000000000000      -0.640000000000000        1880.30009599968     
  -1.92000000000000      -0.600000000000000        1845.84889599970     
  -1.92000000000000      -0.560000000000000        1811.71769599974     
  -1.92000000000000      -0.520000000000000        1777.90649599981     
  -1.92000000000000      -0.480000000000000        1744.41529599990     
  -1.92000000000000      -0.440000000000000        1711.24409600002     
  -1.92000000000000      -0.400000000000000        1678.39289600015     
  -1.92000000000000      -0.360000000000000        1645.86169600029     
  -1.92000000000000      -0.320000000000000        1613.65049600043     
  -1.92000000000000      -0.280000000000000        1581.75929600057     
  -1.92000000000000      -0.240000000000000        1550.18809600070     
  -1.92000000000000      -0.200000000000000        1518.93689600082     
  -1.92000000000000      -0.160000000000000        1488.00569600091     
  -1.92000000000000      -0.120000000000000        1457.39449600098     
  -1.92000000000000      -8.000000000000007E-002   1427.10329600102     
  -1.92000000000000      -4.000000000000004E-002   1397.13209600104     
  -1.92000000000000       0.000000000000000E+000   1367.48089600102     
  -1.92000000000000       4.000000000000004E-002   1338.14969600097     
  -1.92000000000000       8.000000000000007E-002   1309.13849600089     
  -1.92000000000000       0.120000000000000        1280.44729600078     
  -1.92000000000000       0.160000000000000        1252.07609600065     
  -1.92000000000000       0.200000000000000        1224.02489600049     
  -1.92000000000000       0.240000000000000        1196.29369600033     
  -1.92000000000000       0.280000000000000        1168.88249600016     
  -1.92000000000000       0.320000000000000        1141.79129599998     
  -1.92000000000000       0.360000000000000        1115.02009599981     
  -1.92000000000000       0.400000000000000        1088.56889599966     
  -1.92000000000000       0.440000000000000        1062.43769599952     
  -1.92000000000000       0.480000000000000        1036.62649599941     
  -1.92000000000000       0.520000000000000        1011.13529599932     
  -1.92000000000000       0.560000000000000        985.964095999268     
  -1.92000000000000       0.600000000000000        961.112895999249     
  -1.92000000000000       0.640000000000000        936.581695999267     
  -1.92000000000000       0.680000000000000        912.370495999320     
  -1.92000000000000       0.720000000000000        888.479295999407     
  -1.92000000000000       0.760000000000000        864.908095999524     
  -1.92000000000000       0.800000000000000        841.656895999667     
  -1.92000000000000       0.840000000000000        818.725695999829     
  -1.92000000000000       0.880000000000000        796.114496000004     
  -1.92000000000000       0.920000000000000        773.823296000183     
  -1.92000000000000       0.960000000000000        751.852096000357     
  -1.92000000000000        1.00000000000000        730.200896000518     
  -1.92000000000000        1.04000000000000        708.869696000659     
  -1.92000000000000        1.08000000000000        687.858496000771     
  -1.92000000000000        1.12000000000000        667.167296000846     
  -1.92000000000000        1.16000000000000        646.796096000882     
  -1.92000000000000        1.20000000000000        626.744896000873     
  -1.92000000000000        1.24000000000000        607.013696000822     
  -1.92000000000000        1.28000000000000        587.602496000730     
  -1.92000000000000        1.32000000000000        568.511296000602     
  -1.92000000000000        1.36000000000000        549.740096000448     
  -1.92000000000000        1.40000000000000        531.288896000279     
  -1.92000000000000        1.44000000000000        513.157696000113     
  -1.92000000000000        1.48000000000000        495.346495999963     
  -1.92000000000000        1.52000000000000        477.855295999852     
  -1.92000000000000        1.56000000000000        460.684095999797     
  -1.92000000000000        1.60000000000000        443.832895999818     
  -1.92000000000000        1.64000000000000        427.301695999931     
  -1.92000000000000        1.68000000000000        411.090496000144     
  -1.92000000000000        1.72000000000000        395.199296000460     
  -1.92000000000000        1.76000000000000        379.628096000868     
  -1.92000000000000        1.80000000000000        364.376896001338     
  -1.92000000000000        1.84000000000000        349.445696001821     
  -1.92000000000000        1.88000000000000        334.834496002237     
  -1.92000000000000        1.92000000000000        320.543296002473     
  -1.92000000000000        1.96000000000000        306.572096002371     
  -1.92000000000000        2.00000000000000        292.920896001721     
  -1.88000000000000       -2.00000000000000        3071.25273598932     
  -1.88000000000000       -1.96000000000000        3027.13753599637     
  -1.88000000000000       -1.92000000000000        2983.34233600068     
  -1.88000000000000       -1.88000000000000        2939.86713600305     
  -1.88000000000000       -1.84000000000000        2896.71193600409     
  -1.88000000000000       -1.80000000000000        2853.87673600425     
  -1.88000000000000       -1.76000000000000        2811.36153600390     
  -1.88000000000000       -1.72000000000000        2769.16633600328     
  -1.88000000000000       -1.68000000000000        2727.29113600255     
  -1.88000000000000       -1.64000000000000        2685.73593600185     
  -1.88000000000000       -1.60000000000000        2644.50073600123     
  -1.88000000000000       -1.56000000000000        2603.58553600072     
  -1.88000000000000       -1.52000000000000        2562.99033600035     
  -1.88000000000000       -1.48000000000000        2522.71513600011     
  -1.88000000000000       -1.44000000000000        2482.75993599997     
  -1.88000000000000       -1.40000000000000        2443.12473599993     
  -1.88000000000000       -1.36000000000000        2403.80953599994     
  -1.88000000000000       -1.32000000000000        2364.81433600000     
  -1.88000000000000       -1.28000000000000        2326.13913600008     
  -1.88000000000000       -1.24000000000000        2287.78393600016     
  -1.88000000000000       -1.20000000000000        2249.74873600022     
  -1.88000000000000       -1.16000000000000        2212.03353600027     
  -1.88000000000000       -1.12000000000000        2174.63833600028     
  -1.88000000000000       -1.08000000000000        2137.56313600026     
  -1.88000000000000       -1.04000000000000        2100.80793600021     
  -1.88000000000000       -1.00000000000000        2064.37273600013     
  -1.88000000000000      -0.960000000000000        2028.25753600003     
  -1.88000000000000      -0.920000000000000        1992.46233599991     
  -1.88000000000000      -0.880000000000000        1956.98713599979     
  -1.88000000000000      -0.840000000000000        1921.83193599967     
  -1.88000000000000      -0.800000000000000        1886.99673599955     
  -1.88000000000000      -0.760000000000000        1852.48153599945     
  -1.88000000000000      -0.720000000000000        1818.28633599937     
  -1.88000000000000      -0.680000000000000        1784.41113599932     
  -1.88000000000000      -0.640000000000000        1750.85593599929     
  -1.88000000000000      -0.600000000000000        1717.62073599930     
  -1.88000000000000      -0.560000000000000        1684.70553599933     
  -1.88000000000000      -0.520000000000000        1652.11033599940     
  -1.88000000000000      -0.480000000000000        1619.83513599949     
  -1.88000000000000      -0.440000000000000        1587.87993599960     
  -1.88000000000000      -0.400000000000000        1556.24473599973     
  -1.88000000000000      -0.360000000000000        1524.92953599987     
  -1.88000000000000      -0.320000000000000        1493.93433600002     
  -1.88000000000000      -0.280000000000000        1463.25913600017     
  -1.88000000000000      -0.240000000000000        1432.90393600031     
  -1.88000000000000      -0.200000000000000        1402.86873600045     
  -1.88000000000000      -0.160000000000000        1373.15353600056     
  -1.88000000000000      -0.120000000000000        1343.75833600065     
  -1.88000000000000      -8.000000000000007E-002   1314.68313600072     
  -1.88000000000000      -4.000000000000004E-002   1285.92793600076     
  -1.88000000000000       0.000000000000000E+000   1257.49273600077     
  -1.88000000000000       4.000000000000004E-002   1229.37753600075     
  -1.88000000000000       8.000000000000007E-002   1201.58233600071     
  -1.88000000000000       0.120000000000000        1174.10713600064     
  -1.88000000000000       0.160000000000000        1146.95193600054     
  -1.88000000000000       0.200000000000000        1120.11673600043     
  -1.88000000000000       0.240000000000000        1093.60153600031     
  -1.88000000000000       0.280000000000000        1067.40633600017     
  -1.88000000000000       0.320000000000000        1041.53113600004     
  -1.88000000000000       0.360000000000000        1015.97593599991     
  -1.88000000000000       0.400000000000000        990.740735999786     
  -1.88000000000000       0.440000000000000        965.825535999680     
  -1.88000000000000       0.480000000000000        941.230335999595     
  -1.88000000000000       0.520000000000000        916.955135999536     
  -1.88000000000000       0.560000000000000        892.999935999503     
  -1.88000000000000       0.600000000000000        869.364735999501     
  -1.88000000000000       0.640000000000000        846.049535999530     
  -1.88000000000000       0.680000000000000        823.054335999588     
  -1.88000000000000       0.720000000000000        800.379135999674     
  -1.88000000000000       0.760000000000000        778.023935999784     
  -1.88000000000000       0.800000000000000        755.988735999914     
  -1.88000000000000       0.840000000000000        734.273536000057     
  -1.88000000000000       0.880000000000000        712.878336000205     
  -1.88000000000000       0.920000000000000        691.803136000353     
  -1.88000000000000       0.960000000000000        671.047936000491     
  -1.88000000000000        1.00000000000000        650.612736000611     
  -1.88000000000000        1.04000000000000        630.497536000704     
  -1.88000000000000        1.08000000000000        610.702336000766     
  -1.88000000000000        1.12000000000000        591.227136000788     
  -1.88000000000000        1.16000000000000        572.071936000768     
  -1.88000000000000        1.20000000000000        553.236736000703     
  -1.88000000000000        1.24000000000000        534.721536000596     
  -1.88000000000000        1.28000000000000        516.526336000449     
  -1.88000000000000        1.32000000000000        498.651136000268     
  -1.88000000000000        1.36000000000000        481.095936000065     
  -1.88000000000000        1.40000000000000        463.860735999853     
  -1.88000000000000        1.44000000000000        446.945535999647     
  -1.88000000000000        1.48000000000000        430.350335999468     
  -1.88000000000000        1.52000000000000        414.075135999334     
  -1.88000000000000        1.56000000000000        398.119935999266     
  -1.88000000000000        1.60000000000000        382.484735999286     
  -1.88000000000000        1.64000000000000        367.169535999407     
  -1.88000000000000        1.68000000000000        352.174335999642     
  -1.88000000000000        1.72000000000000        337.499135999992     
  -1.88000000000000        1.76000000000000        323.143936000447     
  -1.88000000000000        1.80000000000000        309.108736000979     
  -1.88000000000000        1.84000000000000        295.393536001538     
  -1.88000000000000        1.88000000000000        281.998336002046     
  -1.88000000000000        1.92000000000000        268.923136002389     
  -1.88000000000000        1.96000000000000        256.167936002411     
  -1.88000000000000        2.00000000000000        243.732736001902     
  -1.84000000000000       -2.00000000000000        2908.53433598868     
  -1.84000000000000       -1.96000000000000        2865.60953599550     
  -1.84000000000000       -1.92000000000000        2823.00473599967     
  -1.84000000000000       -1.88000000000000        2780.71993600197     
  -1.84000000000000       -1.84000000000000        2738.75513600298     