 variables= "x","y","fpcb"
 zone i=          20  datapacking=point
  0.950205514354948        1.18439259667772       0.000000000000000E+000
   1.47907983032860       0.336372415105152       0.000000000000000E+000
  0.269708425105770       0.911180748910214       0.000000000000000E+000
  0.489500770159774        1.58984696606857       0.000000000000000E+000
   1.66444417690391       0.432958794141369       0.000000000000000E+000
  0.688281259059956       0.738453185407255       0.000000000000000E+000
  0.568121076822467        1.05768724038552       0.000000000000000E+000
  0.785938215631463        1.67444921059946       0.000000000000000E+000
   1.51359014987808        1.46788258895155       0.000000000000000E+000
   1.28464901297387        1.32767259105754       0.000000000000000E+000
   1.22096108253351       0.818237973056037       0.000000000000000E+000
   1.06791422577119       0.500613213342402       0.000000000000000E+000
  0.306525953406349       0.286335517493911       0.000000000000000E+000
  0.549578488287726       0.287955548364741       0.000000000000000E+000
  0.357186805480481       0.506733965778392       0.000000000000000E+000
  0.790764623514576       0.295945252714254       0.000000000000000E+000
   1.64255828437857        1.74883498816450       0.000000000000000E+000
   1.74988971237767        1.46651283896474       0.000000000000000E+000
   1.73919675175294        1.23865087324038       0.000000000000000E+000
  0.387633729951263        1.28209671551106       0.000000000000000E+000
