 variables= "x","y","fPC"
 zone i=         101  j=         101  datapacking=point
  -2.0000000000000000       -2.0000000000000000        0.0000000000000000     
  -2.0000000000000000       -1.9600000000000000        0.0000000000000000     
  -2.0000000000000000       -1.9199999999999999        0.0000000000000000     
  -2.0000000000000000       -1.8799999999999999        0.0000000000000000     
  -2.0000000000000000       -1.8400000000000001        0.0000000000000000     
  -2.0000000000000000       -1.8000000000000000        0.0000000000000000     
  -2.0000000000000000       -1.7600000000000000        0.0000000000000000     
  -2.0000000000000000       -1.7200000000000000        0.0000000000000000     
  -2.0000000000000000       -1.6799999999999999        0.0000000000000000     
  -2.0000000000000000       -1.6400000000000001        0.0000000000000000     
  -2.0000000000000000       -1.6000000000000001        0.0000000000000000     
  -2.0000000000000000       -1.5600000000000001        0.0000000000000000     
  -2.0000000000000000       -1.5200000000000000        0.0000000000000000     
  -2.0000000000000000       -1.4800000000000000        0.0000000000000000     
  -2.0000000000000000       -1.4399999999999999        0.0000000000000000     
  -2.0000000000000000       -1.3999999999999999        0.0000000000000000     
  -2.0000000000000000       -1.3599999999999999        0.0000000000000000     
  -2.0000000000000000       -1.3199999999999998        0.0000000000000000     
  -2.0000000000000000       -1.2800000000000000        0.0000000000000000     
  -2.0000000000000000       -1.2400000000000000        0.0000000000000000     
  -2.0000000000000000       -1.2000000000000000        0.0000000000000000     
  -2.0000000000000000       -1.1600000000000001        0.0000000000000000     
  -2.0000000000000000       -1.1200000000000001        0.0000000000000000     
  -2.0000000000000000       -1.0800000000000001        0.0000000000000000     
  -2.0000000000000000       -1.0400000000000000        0.0000000000000000     
  -2.0000000000000000       -1.0000000000000000        0.0000000000000000     
  -2.0000000000000000      -0.95999999999999996        0.0000000000000000     
  -2.0000000000000000      -0.91999999999999993        0.0000000000000000     
  -2.0000000000000000      -0.87999999999999989        0.0000000000000000     
  -2.0000000000000000      -0.84000000000000008        0.0000000000000000     
  -2.0000000000000000      -0.80000000000000004        0.0000000000000000     
  -2.0000000000000000      -0.76000000000000001        0.0000000000000000     
  -2.0000000000000000      -0.71999999999999997        0.0000000000000000     
  -2.0000000000000000      -0.67999999999999994        0.0000000000000000     
  -2.0000000000000000      -0.63999999999999990        0.0000000000000000     
  -2.0000000000000000      -0.60000000000000009        0.0000000000000000     
  -2.0000000000000000      -0.56000000000000005        0.0000000000000000     
  -2.0000000000000000      -0.52000000000000002        0.0000000000000000     
  -2.0000000000000000      -0.47999999999999998        0.0000000000000000     
  -2.0000000000000000      -0.43999999999999995        0.0000000000000000     
  -2.0000000000000000      -0.39999999999999991        0.0000000000000000     
  -2.0000000000000000      -0.36000000000000010        0.0000000000000000     
  -2.0000000000000000      -0.32000000000000006        0.0000000000000000     
  -2.0000000000000000      -0.28000000000000003        0.0000000000000000     
  -2.0000000000000000      -0.23999999999999999        0.0000000000000000     
  -2.0000000000000000      -0.19999999999999996        0.0000000000000000     
  -2.0000000000000000      -0.15999999999999992        0.0000000000000000     
  -2.0000000000000000      -0.12000000000000011        0.0000000000000000     
  -2.0000000000000000       -8.0000000000000071E-002   0.0000000000000000     
  -2.0000000000000000       -4.0000000000000036E-002   0.0000000000000000     
  -2.0000000000000000        0.0000000000000000        0.0000000000000000     
  -2.0000000000000000        4.0000000000000036E-002   0.0000000000000000     
  -2.0000000000000000        8.0000000000000071E-002   0.0000000000000000     
  -2.0000000000000000       0.12000000000000011        0.0000000000000000     
  -2.0000000000000000       0.16000000000000014        0.0000000000000000     
  -2.0000000000000000       0.20000000000000018        0.0000000000000000     
  -2.0000000000000000       0.24000000000000021        0.0000000000000000     
  -2.0000000000000000       0.27999999999999980        0.0000000000000000     
  -2.0000000000000000       0.31999999999999984        0.0000000000000000     
  -2.0000000000000000       0.35999999999999988        0.0000000000000000     
  -2.0000000000000000       0.39999999999999991        0.0000000000000000     
  -2.0000000000000000       0.43999999999999995        0.0000000000000000     
  -2.0000000000000000       0.47999999999999998        0.0000000000000000     
  -2.0000000000000000       0.52000000000000002        0.0000000000000000     
  -2.0000000000000000       0.56000000000000005        0.0000000000000000     
  -2.0000000000000000       0.60000000000000009        0.0000000000000000     
  -2.0000000000000000       0.64000000000000012        0.0000000000000000     
  -2.0000000000000000       0.68000000000000016        0.0000000000000000     
  -2.0000000000000000       0.72000000000000020        0.0000000000000000     
  -2.0000000000000000       0.75999999999999979        0.0000000000000000     
  -2.0000000000000000       0.79999999999999982        0.0000000000000000     
  -2.0000000000000000       0.83999999999999986        0.0000000000000000     
  -2.0000000000000000       0.87999999999999989        0.0000000000000000     
  -2.0000000000000000       0.91999999999999993        0.0000000000000000     
  -2.0000000000000000       0.95999999999999996        0.0000000000000000     
  -2.0000000000000000        1.0000000000000000        0.0000000000000000     
  -2.0000000000000000        1.0400000000000000        0.0000000000000000     
  -2.0000000000000000        1.0800000000000001        0.0000000000000000     
  -2.0000000000000000        1.1200000000000001        0.0000000000000000     
  -2.0000000000000000        1.1600000000000001        0.0000000000000000     
  -2.0000000000000000        1.2000000000000002        0.0000000000000000     
  -2.0000000000000000        1.2400000000000002        0.0000000000000000     
  -2.0000000000000000        1.2799999999999998        0.0000000000000000     
  -2.0000000000000000        1.3199999999999998        0.0000000000000000     
  -2.0000000000000000        1.3599999999999999        0.0000000000000000     
  -2.0000000000000000        1.3999999999999999        0.0000000000000000     
  -2.0000000000000000        1.4399999999999999        0.0000000000000000     
  -2.0000000000000000        1.4800000000000000        0.0000000000000000     
  -2.0000000000000000        1.5200000000000000        0.0000000000000000     
  -2.0000000000000000        1.5600000000000001        0.0000000000000000     
  -2.0000000000000000        1.6000000000000001        0.0000000000000000     
  -2.0000000000000000        1.6400000000000001        0.0000000000000000     
  -2.0000000000000000        1.6800000000000002        0.0000000000000000     
  -2.0000000000000000        1.7200000000000002        0.0000000000000000     
  -2.0000000000000000        1.7599999999999998        0.0000000000000000     
  -2.0000000000000000        1.7999999999999998        0.0000000000000000     
  -2.0000000000000000        1.8399999999999999        0.0000000000000000     
  -2.0000000000000000        1.8799999999999999        0.0000000000000000     
  -2.0000000000000000        1.9199999999999999        0.0000000000000000     
  -2.0000000000000000        1.9600000000000000        0.0000000000000000     
  -2.0000000000000000        2.0000000000000000        0.0000000000000000     
  -1.9600000000000000       -2.0000000000000000        0.0000000000000000     
  -1.9600000000000000       -1.9600000000000000        0.0000000000000000     
  -1.9600000000000000       -1.9199999999999999        0.0000000000000000     
  -1.9600000000000000       -1.8799999999999999        0.0000000000000000     
  -1.9600000000000000       -1.8400000000000001        0.0000000000000000     
  -1.9600000000000000       -1.8000000000000000        0.0000000000000000     
  -1.9600000000000000       -1.7600000000000000        0.0000000000000000     
  -1.9600000000000000       -1.7200000000000000        0.0000000000000000     
  -1.9600000000000000       -1.6799999999999999        0.0000000000000000     
  -1.9600000000000000       -1.6400000000000001        0.0000000000000000     
  -1.9600000000000000       -1.6000000000000001        0.0000000000000000     
  -1.9600000000000000       -1.5600000000000001        0.0000000000000000     
  -1.9600000000000000       -1.5200000000000000        0.0000000000000000     
  -1.9600000000000000       -1.4800000000000000        0.0000000000000000     
  -1.9600000000000000       -1.4399999999999999        0.0000000000000000     
  -1.9600000000000000       -1.3999999999999999        0.0000000000000000     
  -1.9600000000000000       -1.3599999999999999        0.0000000000000000     
  -1.9600000000000000       -1.3199999999999998        0.0000000000000000     
  -1.9600000000000000       -1.2800000000000000        0.0000000000000000     
  -1.9600000000000000       -1.2400000000000000        0.0000000000000000     
  -1.9600000000000000       -1.2000000000000000        0.0000000000000000     
  -1.9600000000000000       -1.1600000000000001        0.0000000000000000     
  -1.9600000000000000       -1.1200000000000001        0.0000000000000000     
  -1.9600000000000000       -1.0800000000000001        0.0000000000000000     
  -1.9600000000000000       -1.0400000000000000        0.0000000000000000     
  -1.9600000000000000       -1.0000000000000000        0.0000000000000000     
  -1.9600000000000000      -0.95999999999999996        0.0000000000000000     
  -1.9600000000000000      -0.91999999999999993        0.0000000000000000     
  -1.9600000000000000      -0.87999999999999989        0.0000000000000000     
  -1.9600000000000000      -0.84000000000000008        0.0000000000000000     
  -1.9600000000000000      -0.80000000000000004        0.0000000000000000     
  -1.9600000000000000      -0.76000000000000001        0.0000000000000000     
  -1.9600000000000000      -0.71999999999999997        0.0000000000000000     
  -1.9600000000000000      -0.67999999999999994        0.0000000000000000     
  -1.9600000000000000      -0.63999999999999990        0.0000000000000000     
  -1.9600000000000000      -0.60000000000000009        0.0000000000000000     
  -1.9600000000000000      -0.56000000000000005        0.0000000000000000     
  -1.9600000000000000      -0.52000000000000002        0.0000000000000000     
  -1.9600000000000000      -0.47999999999999998        0.0000000000000000     
  -1.9600000000000000      -0.43999999999999995        0.0000000000000000     
  -1.9600000000000000      -0.39999999999999991        0.0000000000000000     
  -1.9600000000000000      -0.36000000000000010        0.0000000000000000     
  -1.9600000000000000      -0.32000000000000006        0.0000000000000000     
  -1.9600000000000000      -0.28000000000000003        0.0000000000000000     
  -1.9600000000000000      -0.23999999999999999        0.0000000000000000     
  -1.9600000000000000      -0.19999999999999996        0.0000000000000000     
  -1.9600000000000000      -0.15999999999999992        0.0000000000000000     
  -1.9600000000000000      -0.12000000000000011        0.0000000000000000     
  -1.9600000000000000       -8.0000000000000071E-002   0.0000000000000000     
  -1.9600000000000000       -4.0000000000000036E-002   0.0000000000000000     
  -1.9600000000000000        0.0000000000000000        0.0000000000000000     
  -1.9600000000000000        4.0000000000000036E-002   0.0000000000000000     
  -1.9600000000000000        8.0000000000000071E-002   0.0000000000000000     
  -1.9600000000000000       0.12000000000000011        0.0000000000000000     
  -1.9600000000000000       0.16000000000000014        0.0000000000000000     
  -1.9600000000000000       0.20000000000000018        0.0000000000000000     
  -1.9600000000000000       0.24000000000000021        0.0000000000000000     
  -1.9600000000000000       0.27999999999999980        0.0000000000000000     
  -1.9600000000000000       0.31999999999999984        0.0000000000000000     
  -1.9600000000000000       0.35999999999999988        0.0000000000000000     
  -1.9600000000000000       0.39999999999999991        0.0000000000000000     
  -1.9600000000000000       0.43999999999999995        0.0000000000000000     
  -1.9600000000000000       0.47999999999999998        0.0000000000000000     
  -1.9600000000000000       0.52000000000000002        0.0000000000000000     
  -1.9600000000000000       0.56000000000000005        0.0000000000000000     
  -1.9600000000000000       0.60000000000000009        0.0000000000000000     
  -1.9600000000000000       0.64000000000000012        0.0000000000000000     
  -1.9600000000000000       0.68000000000000016        0.0000000000000000     
  -1.9600000000000000       0.72000000000000020        0.0000000000000000     
  -1.9600000000000000       0.75999999999999979        0.0000000000000000     
  -1.9600000000000000       0.79999999999999982        0.0000000000000000     
  -1.9600000000000000       0.83999999999999986        0.0000000000000000     
  -1.9600000000000000       0.87999999999999989        0.0000000000000000     
  -1.9600000000000000       0.91999999999999993        0.0000000000000000     
  -1.9600000000000000       0.95999999999999996        0.0000000000000000     
  -1.9600000000000000        1.0000000000000000        0.0000000000000000     
  -1.9600000000000000        1.0400000000000000        0.0000000000000000     
  -1.9600000000000000        1.0800000000000001        0.0000000000000000     
  -1.9600000000000000        1.1200000000000001        0.0000000000000000     
  -1.9600000000000000        1.1600000000000001        0.0000000000000000     
  -1.9600000000000000        1.2000000000000002        0.0000000000000000     
  -1.9600000000000000        1.2400000000000002        0.0000000000000000     
  -1.9600000000000000        1.2799999999999998        0.0000000000000000     
  -1.9600000000000000        1.3199999999999998        0.0000000000000000     
  -1.9600000000000000        1.3599999999999999        0.0000000000000000     
  -1.9600000000000000        1.3999999999999999        0.0000000000000000     
  -1.9600000000000000        1.4399999999999999        0.0000000000000000     
  -1.9600000000000000        1.4800000000000000        0.0000000000000000     
  -1.9600000000000000        1.5200000000000000        0.0000000000000000     
  -1.9600000000000000        1.5600000000000001        0.0000000000000000     
  -1.9600000000000000        1.6000000000000001        0.0000000000000000     
  -1.9600000000000000        1.6400000000000001        0.0000000000000000     
  -1.9600000000000000        1.6800000000000002        0.0000000000000000     
  -1.9600000000000000        1.7200000000000002        0.0000000000000000     
  -1.9600000000000000        1.7599999999999998        0.0000000000000000     
  -1.9600000000000000        1.7999999999999998        0.0000000000000000     
  -1.9600000000000000        1.8399999999999999        0.0000000000000000     
  -1.9600000000000000        1.8799999999999999        0.0000000000000000     
  -1.9600000000000000        1.9199999999999999        0.0000000000000000     
  -1.9600000000000000        1.9600000000000000        0.0000000000000000     
  -1.9600000000000000        2.0000000000000000        0.0000000000000000     
  -1.9199999999999999       -2.0000000000000000        0.0000000000000000     
  -1.9199999999999999       -1.9600000000000000        0.0000000000000000     
  -1.9199999999999999       -1.9199999999999999        0.0000000000000000     
  -1.9199999999999999       -1.8799999999999999        0.0000000000000000     
  -1.9199999999999999       -1.8400000000000001        0.0000000000000000     
  -1.9199999999999999       -1.8000000000000000        0.0000000000000000     
  -1.9199999999999999       -1.7600000000000000        0.0000000000000000     
  -1.9199999999999999       -1.7200000000000000        0.0000000000000000     
  -1.9199999999999999       -1.6799999999999999        0.0000000000000000     
  -1.9199999999999999       -1.6400000000000001        0.0000000000000000     
  -1.9199999999999999       -1.6000000000000001        0.0000000000000000     
  -1.9199999999999999       -1.5600000000000001        0.0000000000000000     
  -1.9199999999999999       -1.5200000000000000        0.0000000000000000     
  -1.9199999999999999       -1.4800000000000000        0.0000000000000000     
  -1.9199999999999999       -1.4399999999999999        0.0000000000000000     
  -1.9199999999999999       -1.3999999999999999        0.0000000000000000     
  -1.9199999999999999       -1.3599999999999999        0.0000000000000000     
  -1.9199999999999999       -1.3199999999999998        0.0000000000000000     
  -1.9199999999999999       -1.2800000000000000        0.0000000000000000     
  -1.9199999999999999       -1.2400000000000000        0.0000000000000000     
  -1.9199999999999999       -1.2000000000000000        0.0000000000000000     
  -1.9199999999999999       -1.1600000000000001        0.0000000000000000     
  -1.9199999999999999       -1.1200000000000001        0.0000000000000000     
  -1.9199999999999999       -1.0800000000000001        0.0000000000000000     
  -1.9199999999999999       -1.0400000000000000        0.0000000000000000     
  -1.9199999999999999       -1.0000000000000000        0.0000000000000000     
  -1.9199999999999999      -0.95999999999999996        0.0000000000000000     
  -1.9199999999999999      -0.91999999999999993        0.0000000000000000     
  -1.9199999999999999      -0.87999999999999989        0.0000000000000000     
  -1.9199999999999999      -0.84000000000000008        0.0000000000000000     
  -1.9199999999999999      -0.80000000000000004        0.0000000000000000     
  -1.9199999999999999      -0.76000000000000001        0.0000000000000000     
  -1.9199999999999999      -0.71999999999999997        0.0000000000000000     
  -1.9199999999999999      -0.67999999999999994        0.0000000000000000     
  -1.9199999999999999      -0.63999999999999990        0.0000000000000000     
  -1.9199999999999999      -0.60000000000000009        0.0000000000000000     
  -1.9199999999999999      -0.56000000000000005        0.0000000000000000     
  -1.9199999999999999      -0.52000000000000002        0.0000000000000000     
  -1.9199999999999999      -0.47999999999999998        0.0000000000000000     
  -1.9199999999999999      -0.43999999999999995        0.0000000000000000     
  -1.9199999999999999      -0.39999999999999991        0.0000000000000000     
  -1.9199999999999999      -0.36000000000000010        0.0000000000000000     
  -1.9199999999999999      -0.32000000000000006        0.0000000000000000     
  -1.9199999999999999      -0.28000000000000003        0.0000000000000000     
  -1.9199999999999999      -0.23999999999999999        0.0000000000000000     
  -1.9199999999999999      -0.19999999999999996        0.0000000000000000     
  -1.9199999999999999      -0.15999999999999992        0.0000000000000000     
  -1.9199999999999999      -0.12000000000000011        0.0000000000000000     
  -1.9199999999999999       -8.0000000000000071E-002   0.0000000000000000     
  -1.9199999999999999       -4.0000000000000036E-002   0.0000000000000000     
  -1.9199999999999999        0.0000000000000000        0.0000000000000000     
  -1.9199999999999999        4.0000000000000036E-002   0.0000000000000000     
  -1.9199999999999999        8.0000000000000071E-002   0.0000000000000000     
  -1.9199999999999999       0.12000000000000011        0.0000000000000000     
  -1.9199999999999999       0.16000000000000014        0.0000000000000000     
  -1.9199999999999999       0.20000000000000018        0.0000000000000000     
  -1.9199999999999999       0.24000000000000021        0.0000000000000000     
  -1.9199999999999999       0.27999999999999980        0.0000000000000000     
  -1.9199999999999999       0.31999999999999984        0.0000000000000000     
  -1.9199999999999999       0.35999999999999988        0.0000000000000000     
  -1.9199999999999999       0.39999999999999991        0.0000000000000000     
  -1.9199999999999999       0.43999999999999995        0.0000000000000000     
  -1.9199999999999999       0.47999999999999998        0.0000000000000000     
  -1.9199999999999999       0.52000000000000002        0.0000000000000000     
  -1.9199999999999999       0.56000000000000005        0.0000000000000000     
  -1.9199999999999999       0.60000000000000009        0.0000000000000000     
  -1.9199999999999999       0.64000000000000012        0.0000000000000000     
  -1.9199999999999999       0.68000000000000016        0.0000000000000000     
  -1.9199999999999999       0.72000000000000020        0.0000000000000000     
  -1.9199999999999999       0.75999999999999979        0.0000000000000000     
  -1.9199999999999999       0.79999999999999982        0.0000000000000000     
  -1.9199999999999999       0.83999999999999986        0.0000000000000000     
  -1.9199999999999999       0.87999999999999989        0.0000000000000000     
  -1.9199999999999999       0.91999999999999993        0.0000000000000000     
  -1.9199999999999999       0.95999999999999996        0.0000000000000000     
  -1.9199999999999999        1.0000000000000000        0.0000000000000000     
  -1.9199999999999999        1.0400000000000000        0.0000000000000000     
  -1.9199999999999999        1.0800000000000001        0.0000000000000000     
  -1.9199999999999999        1.1200000000000001        0.0000000000000000     
  -1.9199999999999999        1.1600000000000001        0.0000000000000000     
  -1.9199999999999999        1.2000000000000002        0.0000000000000000     
  -1.9199999999999999        1.2400000000000002        0.0000000000000000     
  -1.9199999999999999        1.2799999999999998        0.0000000000000000     
  -1.9199999999999999        1.3199999999999998        0.0000000000000000     
  -1.9199999999999999        1.3599999999999999        0.0000000000000000     
  -1.9199999999999999        1.3999999999999999        0.0000000000000000     
  -1.9199999999999999        1.4399999999999999        0.0000000000000000     
  -1.9199999999999999        1.4800000000000000        0.0000000000000000     
  -1.9199999999999999        1.5200000000000000        0.0000000000000000     
  -1.9199999999999999        1.5600000000000001        0.0000000000000000     
  -1.9199999999999999        1.6000000000000001        0.0000000000000000     
  -1.9199999999999999        1.6400000000000001        0.0000000000000000     
  -1.9199999999999999        1.6800000000000002        0.0000000000000000     
  -1.9199999999999999        1.7200000000000002        0.0000000000000000     
  -1.9199999999999999        1.7599999999999998        0.0000000000000000     
  -1.9199999999999999        1.7999999999999998        0.0000000000000000     
  -1.9199999999999999        1.8399999999999999        0.0000000000000000     
  -1.9199999999999999        1.8799999999999999        0.0000000000000000     
  -1.9199999999999999        1.9199999999999999        0.0000000000000000     
  -1.9199999999999999        1.9600000000000000        0.0000000000000000     
  -1.9199999999999999        2.0000000000000000        0.0000000000000000     
  -1.8799999999999999       -2.0000000000000000        0.0000000000000000     
  -1.8799999999999999       -1.9600000000000000        0.0000000000000000     
  -1.8799999999999999       -1.9199999999999999        0.0000000000000000     
  -1.8799999999999999       -1.8799999999999999        0.0000000000000000     
  -1.8799999999999999       -1.8400000000000001        0.0000000000000000     
  -1.8799999999999999       -1.8000000000000000        0.0000000000000000     
  -1.8799999999999999       -1.7600000000000000        0.0000000000000000     
  -1.8799999999999999       -1.7200000000000000        0.0000000000000000     
  -1.8799999999999999       -1.6799999999999999        0.0000000000000000     
  -1.8799999999999999       -1.6400000000000001        0.0000000000000000     
  -1.8799999999999999       -1.6000000000000001        0.0000000000000000     
  -1.8799999999999999       -1.5600000000000001        0.0000000000000000     
  -1.8799999999999999       -1.5200000000000000        0.0000000000000000     
  -1.8799999999999999       -1.4800000000000000        0.0000000000000000     
  -1.8799999999999999       -1.4399999999999999        0.0000000000000000     
  -1.8799999999999999       -1.3999999999999999        0.0000000000000000     
  -1.8799999999999999       -1.3599999999999999        0.0000000000000000     
  -1.8799999999999999       -1.3199999999999998        0.0000000000000000     
  -1.8799999999999999       -1.2800000000000000        0.0000000000000000     
  -1.8799999999999999       -1.2400000000000000        0.0000000000000000     
  -1.8799999999999999       -1.2000000000000000        0.0000000000000000     
  -1.8799999999999999       -1.1600000000000001        0.0000000000000000     
  -1.8799999999999999       -1.1200000000000001        0.0000000000000000     
  -1.8799999999999999       -1.0800000000000001        0.0000000000000000     
  -1.8799999999999999       -1.0400000000000000        0.0000000000000000     
  -1.8799999999999999       -1.0000000000000000        0.0000000000000000     
  -1.8799999999999999      -0.95999999999999996        0.0000000000000000     
  -1.8799999999999999      -0.91999999999999993        0.0000000000000000     
  -1.8799999999999999      -0.87999999999999989        0.0000000000000000     
  -1.8799999999999999      -0.84000000000000008        0.0000000000000000     
  -1.8799999999999999      -0.80000000000000004        0.0000000000000000     
  -1.8799999999999999      -0.76000000000000001        0.0000000000000000     
  -1.8799999999999999      -0.71999999999999997        0.0000000000000000     
  -1.8799999999999999      -0.67999999999999994        0.0000000000000000     
  -1.8799999999999999      -0.63999999999999990        0.0000000000000000     
  -1.8799999999999999      -0.60000000000000009        0.0000000000000000     
  -1.8799999999999999      -0.56000000000000005        0.0000000000000000     
  -1.8799999999999999      -0.52000000000000002        0.0000000000000000     
  -1.8799999999999999      -0.47999999999999998        0.0000000000000000     
  -1.8799999999999999      -0.43999999999999995        0.0000000000000000     
  -1.8799999999999999      -0.39999999999999991        0.0000000000000000     
  -1.8799999999999999      -0.36000000000000010        0.0000000000000000     
  -1.8799999999999999      -0.32000000000000006        0.0000000000000000     
  -1.8799999999999999      -0.28000000000000003        0.0000000000000000     
  -1.8799999999999999      -0.23999999999999999        0.0000000000000000     
  -1.8799999999999999      -0.19999999999999996        0.0000000000000000     
  -1.8799999999999999      -0.15999999999999992        0.0000000000000000     
  -1.8799999999999999      -0.12000000000000011        0.0000000000000000     
  -1.8799999999999999       -8.0000000000000071E-002   0.0000000000000000     
  -1.8799999999999999       -4.0000000000000036E-002   0.0000000000000000     
  -1.8799999999999999        0.0000000000000000        0.0000000000000000     
  -1.8799999999999999        4.0000000000000036E-002   0.0000000000000000     
  -1.8799999999999999        8.0000000000000071E-002   0.0000000000000000     
  -1.8799999999999999       0.12000000000000011        0.0000000000000000     
  -1.8799999999999999       0.16000000000000014        0.0000000000000000     
  -1.8799999999999999       0.20000000000000018        0.0000000000000000     
  -1.8799999999999999       0.24000000000000021        0.0000000000000000     
  -1.8799999999999999       0.27999999999999980        0.0000000000000000     
  -1.8799999999999999       0.31999999999999984        0.0000000000000000     
  -1.8799999999999999       0.35999999999999988        0.0000000000000000     
  -1.8799999999999999       0.39999999999999991        0.0000000000000000     
  -1.8799999999999999       0.43999999999999995        0.0000000000000000     
  -1.8799999999999999       0.47999999999999998        0.0000000000000000     
  -1.8799999999999999       0.52000000000000002        0.0000000000000000     
  -1.8799999999999999       0.56000000000000005        0.0000000000000000     
  -1.8799999999999999       0.60000000000000009        0.0000000000000000     
  -1.8799999999999999       0.64000000000000012        0.0000000000000000     
  -1.8799999999999999       0.68000000000000016        0.0000000000000000     
  -1.8799999999999999       0.72000000000000020        0.0000000000000000     
  -1.8799999999999999       0.75999999999999979        0.0000000000000000     
  -1.8799999999999999       0.79999999999999982        0.0000000000000000     
  -1.8799999999999999       0.83999999999999986        0.0000000000000000     
  -1.8799999999999999       0.87999999999999989        0.0000000000000000     
  -1.8799999999999999       0.91999999999999993        0.0000000000000000     
  -1.8799999999999999       0.95999999999999996        0.0000000000000000     