 variables= "x","y","fpcb"
 zone i=          12  datapacking=point
   0.0000000000000000        0.0000000000000000        0.0000000000000000     
  0.27739805071751000      -0.42686003136886019        0.0000000000000000     
   1.1381294030625813       -5.4728929408931037E-002   0.0000000000000000     
   1.9954229305202791        1.9890653550049096        0.0000000000000000     
 -0.74498824531379615       -1.4149417559633390        0.0000000000000000     
  -1.0174388434022557        1.2557259023943392        0.0000000000000000     
  0.63263189203572567        1.3488782128125560        0.0000000000000000     
  -1.5376086600394425       0.77794098999128858        0.0000000000000000     
  -4.3294649852649858E-002  -1.8730537374403107        0.0000000000000000     
 -0.38045267787807346       -1.1414377739618922        0.0000000000000000     
   1.3682066859563649      -0.87193958832279761        0.0000000000000000     
  -1.6411381375933565       0.22043000078576291        0.0000000000000000     
