 variables= "x","y","fPC"
 zone i=         101  j=         101  datapacking=point
  -2.00000000000000       -2.00000000000000       1.943254204012777E-002
  -2.00000000000000       -1.96000000000000       1.969496908806030E-002
  -2.00000000000000       -1.92000000000000       2.006680002294919E-002
  -2.00000000000000       -1.88000000000000       2.054129853565465E-002
  -2.00000000000000       -1.84000000000000       2.111221069104129E-002
  -2.00000000000000       -1.80000000000000       2.177377734854636E-002
  -2.00000000000000       -1.76000000000000       2.252074208393667E-002
  -2.00000000000000       -1.72000000000000       2.334835507589138E-002
  -2.00000000000000       -1.68000000000000       2.425237339641582E-002
  -2.00000000000000       -1.64000000000000       2.522905812023125E-002
  -2.00000000000000       -1.60000000000000       2.627516864487950E-002
  -2.00000000000000       -1.56000000000000       2.738795459068957E-002
  -2.00000000000000       -1.52000000000000       2.856514562778983E-002
  -2.00000000000000       -1.48000000000000       2.980493955593654E-002
  -2.00000000000000       -1.44000000000000       3.110598894232844E-002
  -2.00000000000000       -1.40000000000000       3.246738660245789E-002
  -2.00000000000000       -1.36000000000000       3.388865018966585E-002
  -2.00000000000000       -1.32000000000000       3.536970614028246E-002
  -2.00000000000000       -1.28000000000000       3.691087320311546E-002
  -2.00000000000000       -1.24000000000000       3.851284576445336E-002
  -2.00000000000000       -1.20000000000000       4.017667716295635E-002
  -2.00000000000000       -1.16000000000000       4.190376317243444E-002
  -2.00000000000000       -1.12000000000000       4.369582581491143E-002
  -2.00000000000000       -1.08000000000000       4.555489765127683E-002
  -2.00000000000000       -1.04000000000000       4.748330668241820E-002
  -2.00000000000000       -1.00000000000000       4.948366197985110E-002
  -2.00000000000000      -0.960000000000000       5.155884015165157E-002
  -2.00000000000000      -0.920000000000000       5.371197273681945E-002
  -2.00000000000000      -0.880000000000000       5.594643460917526E-002
  -2.00000000000000      -0.840000000000000       5.826583346039697E-002
  -2.00000000000000      -0.800000000000000       6.067400042094249E-002
  -2.00000000000000      -0.760000000000000       6.317498186729995E-002
  -2.00000000000000      -0.720000000000000       6.577303245425851E-002
  -2.00000000000000      -0.680000000000000       6.847260940178164E-002
  -2.00000000000000      -0.640000000000000       7.127836805742806E-002
  -2.00000000000000      -0.600000000000000       7.419515874730230E-002
  -2.00000000000000      -0.560000000000000       7.722802492101419E-002
  -2.00000000000000      -0.520000000000000       8.038220258924843E-002
  -2.00000000000000      -0.480000000000000       8.366312104620119E-002
  -2.00000000000000      -0.440000000000000       8.707640486332263E-002
  -2.00000000000000      -0.400000000000000       9.062787713558561E-002
  -2.00000000000000      -0.360000000000000       9.432356395675444E-002
  -2.00000000000000      -0.320000000000000       9.816970009599243E-002
  -2.00000000000000      -0.280000000000000       0.102172735844482     
  -2.00000000000000      -0.240000000000000       0.106339344997640     
  -2.00000000000000      -0.200000000000000       0.110676433935930     
  -2.00000000000000      -0.160000000000000       0.115191151765218     
  -2.00000000000000      -0.120000000000000       0.119890901476064     
  -2.00000000000000      -8.000000000000007E-002  0.124783352080345     
  -2.00000000000000      -4.000000000000004E-002  0.129876451683084     
  -2.00000000000000       0.000000000000000E+000  0.135178441447336     
  -2.00000000000000       4.000000000000004E-002  0.140697870410520     
  -2.00000000000000       8.000000000000007E-002  0.146443611111545     
  -2.00000000000000       0.120000000000000       0.152424875989614     
  -2.00000000000000       0.160000000000000       0.158651234517537     
  -2.00000000000000       0.200000000000000       0.165132631034897     
  -2.00000000000000       0.240000000000000       0.171879403249337     
  -2.00000000000000       0.280000000000000       0.178902301377726     
  -2.00000000000000       0.320000000000000       0.186212507902808     
  -2.00000000000000       0.360000000000000       0.193821657925415     
  -2.00000000000000       0.400000000000000       0.201741860097107     
  -2.00000000000000       0.440000000000000       0.209985718123476     
  -2.00000000000000       0.480000000000000       0.218566352834107     
  -2.00000000000000       0.520000000000000       0.227497424821474     
  -2.00000000000000       0.560000000000000       0.236793157657677     
  -2.00000000000000       0.600000000000000       0.246468361705155     
  -2.00000000000000       0.640000000000000       0.256538458545042     
  -2.00000000000000       0.680000000000000       0.267019506054885     
  -2.00000000000000       0.720000000000000       0.277928224175942     
  -2.00000000000000       0.760000000000000       0.289282021419140     
  -2.00000000000000       0.800000000000000       0.301099022168158     
  -2.00000000000000       0.840000000000000       0.313398094847829     
  -2.00000000000000       0.880000000000000       0.326198881036266     
  -2.00000000000000       0.920000000000000       0.339521825609720     
  -2.00000000000000       0.960000000000000       0.353388208020186     
  -2.00000000000000        1.00000000000000       0.367820174817236     
  -2.00000000000000        1.04000000000000       0.382840773537368     
  -2.00000000000000        1.08000000000000       0.398473988096428     
  -2.00000000000000        1.12000000000000       0.414744775833306     
  -2.00000000000000        1.16000000000000       0.431679106366125     
  -2.00000000000000        1.20000000000000       0.449304002435619     
  -2.00000000000000        1.24000000000000       0.467647582924161     
  -2.00000000000000        1.28000000000000       0.486739108253174     
  -2.00000000000000        1.32000000000000       0.506609028376193     
  -2.00000000000000        1.36000000000000       0.527289033599816     
  -2.00000000000000        1.40000000000000       0.548812108480176     
  -2.00000000000000        1.44000000000000       0.571212589058169     
  -2.00000000000000        1.48000000000000       0.594526223712867     
  -2.00000000000000        1.52000000000000       0.618790237928859     
  -2.00000000000000        1.56000000000000       0.644043403290153     
  -2.00000000000000        1.60000000000000       0.670326111030354     
  -2.00000000000000        1.64000000000000       0.697680450486343     
  -2.00000000000000        1.68000000000000       0.726150292820550     
  -2.00000000000000        1.72000000000000       0.755781380395054     
  -2.00000000000000        1.76000000000000       0.786621422199289     
  -2.00000000000000        1.80000000000000       0.818720195751999     
  -2.00000000000000        1.84000000000000       0.852129655917249     
  -2.00000000000000        1.88000000000000       0.886904051093827     
  -2.00000000000000        1.92000000000000       0.923100047257204     
  -2.00000000000000        1.96000000000000       0.960776860353386     
  -2.00000000000000        2.00000000000000       0.999996397564444     
  -1.96000000000000       -2.00000000000000       1.998158141187190E-002
  -1.96000000000000       -1.96000000000000       2.037094644662269E-002
  -1.96000000000000       -1.92000000000000       2.085623384819498E-002
  -1.96000000000000       -1.88000000000000       2.143230438612910E-002
  -1.96000000000000       -1.84000000000000       2.209438452126280E-002
  -1.96000000000000       -1.80000000000000       2.283808545340279E-002
  -1.96000000000000       -1.76000000000000       2.365941743830103E-002
  -1.96000000000000       -1.72000000000000       2.455479984156451E-002
  -1.96000000000000       -1.68000000000000       2.552106737256161E-002
  -1.96000000000000       -1.64000000000000       2.655547291747549E-002
  -1.96000000000000       -1.60000000000000       2.765568736743996E-002
  -1.96000000000000       -1.56000000000000       2.881979681511723E-002
  -1.96000000000000       -1.52000000000000       3.004629747113833E-002
  -1.96000000000000       -1.48000000000000       3.133408863056494E-002
  -1.96000000000000       -1.44000000000000       3.268246399885130E-002
  -1.96000000000000       -1.40000000000000       3.409110166685313E-002
  -1.96000000000000       -1.36000000000000       3.556005300499148E-002
  -1.96000000000000       -1.32000000000000       3.708973072802589E-002
  -1.96000000000000       -1.28000000000000       3.868089636370132E-002
  -1.96000000000000       -1.24000000000000       4.033464734112755E-002
  -1.96000000000000       -1.20000000000000       4.205240389785241E-002
  -1.96000000000000       -1.16000000000000       4.383589598834095E-002
  -1.96000000000000       -1.12000000000000       4.568715036096251E-002
  -1.96000000000000       -1.08000000000000       4.760847795553864E-002
  -1.96000000000000       -1.04000000000000       4.960246175911418E-002
  -1.96000000000000       -1.00000000000000       5.167194524375177E-002
  -1.96000000000000      -0.960000000000000       5.382002149698638E-002
  -1.96000000000000      -0.920000000000000       5.605002314288717E-002
  -1.96000000000000      -0.880000000000000       5.836551313967168E-002
  -1.96000000000000      -0.840000000000000       6.077027652836374E-002
  -1.96000000000000      -0.800000000000000       6.326831319607450E-002
  -1.96000000000000      -0.760000000000000       6.586383170724822E-002
  -1.96000000000000      -0.720000000000000       6.856124424643877E-002
  -1.96000000000000      -0.680000000000000       7.136516270706982E-002
  -1.96000000000000      -0.640000000000000       7.428039595201726E-002
  -1.96000000000000      -0.600000000000000       7.731194826385075E-002
  -1.96000000000000      -0.560000000000000       8.046501899509609E-002
  -1.96000000000000      -0.520000000000000       8.374500342196772E-002
  -1.96000000000000      -0.480000000000000       8.715749479866665E-002
  -1.96000000000000      -0.440000000000000       9.070828760352041E-002
  -1.96000000000000      -0.400000000000000       9.440338196298245E-002
  -1.96000000000000      -0.360000000000000       9.824898923475829E-002
  -1.96000000000000      -0.320000000000000       0.102251538727159     
  -1.96000000000000      -0.280000000000000       0.106417685528085     
  -1.96000000000000      -0.240000000000000       0.110754319413942     
  -1.96000000000000      -0.200000000000000       0.115268574806147     
  -1.96000000000000      -0.160000000000000       0.119967841740814     
  -1.96000000000000      -0.120000000000000       0.124859777815632     
  -1.96000000000000      -8.000000000000007E-002  0.129952321076846     
  -1.96000000000000      -4.000000000000004E-002  0.135253703808772     
  -1.96000000000000       0.000000000000000E+000  0.140772467188142     
  -1.96000000000000       4.000000000000004E-002  0.146517476766091     
  -1.96000000000000       8.000000000000007E-002  0.152497938741506     
  -1.96000000000000       0.120000000000000       0.158723416990921     
  -1.96000000000000       0.160000000000000       0.165203850822056     
  -1.96000000000000       0.200000000000000       0.171949573420518     
  -1.96000000000000       0.240000000000000       0.178971330962092     
  -1.96000000000000       0.280000000000000       0.186280302366400     
  -1.96000000000000       0.320000000000000       0.193888119671573     
  -1.96000000000000       0.360000000000000       0.201806889013896     
  -1.96000000000000       0.400000000000000       0.210049212201171     
  -1.96000000000000       0.440000000000000       0.218628208873780     
  -1.96000000000000       0.480000000000000       0.227557539253158     
  -1.96000000000000       0.520000000000000       0.236851427483517     
  -1.96000000000000       0.560000000000000       0.246524685579308     
  -1.96000000000000       0.600000000000000       0.256592737997931     
  -1.96000000000000       0.640000000000000       0.267071646864734     
  -1.96000000000000       0.680000000000000       0.277978137885269     
  -1.96000000000000       0.720000000000000       0.289329626988144     
  -1.96000000000000       0.760000000000000       0.301144247750634     
  -1.96000000000000       0.800000000000000       0.313440879668443     
  -1.96000000000000       0.840000000000000       0.326239177340659     
  -1.96000000000000       0.880000000000000       0.339559600651046     
  -1.96000000000000       0.920000000000000       0.353423446037281     
  -1.96000000000000       0.960000000000000       0.367852878950709     
  -1.96000000000000        1.00000000000000       0.382870967620417     
  -1.96000000000000        1.04000000000000       0.398501718247263     
  -1.96000000000000        1.08000000000000       0.414770111765512     
  -1.96000000000000        1.12000000000000       0.431702142322330     
  -1.96000000000000        1.16000000000000       0.449324857638252     
  -1.96000000000000        1.20000000000000       0.467666401425081     
  -1.96000000000000        1.24000000000000       0.486756058051319     
  -1.96000000000000        1.28000000000000       0.506624299659350     
  -1.96000000000000        1.32000000000000       0.527302835953013     
  -1.96000000000000        1.36000000000000       0.548824666889020     
  -1.96000000000000        1.40000000000000       0.571224138520899     
  -1.96000000000000        1.44000000000000       0.594537002259670     
  -1.96000000000000        1.48000000000000       0.618800477831396     
  -1.96000000000000        1.52000000000000       0.644053320228030     
  -1.96000000000000        1.56000000000000       0.670335890964618     
  -1.96000000000000        1.60000000000000       0.697690233972892     
  -1.96000000000000        1.64000000000000       0.726160156478640     
  -1.96000000000000        1.68000000000000       0.755791315227896     
  -1.96000000000000        1.72000000000000       0.786631308445013     
  -1.96000000000000        1.76000000000000       0.818729773924064     
  -1.96000000000000        1.80000000000000       0.852138493673629     
  -1.96000000000000        1.84000000000000       0.886911505554146     
  -1.96000000000000        1.88000000000000       0.923105222366209     
  -1.96000000000000        1.92000000000000       0.960778558867963     
  -1.96000000000000        1.96000000000000       0.999993067219663     
  -1.96000000000000        2.00000000000000        1.04081308137376     
  -1.92000000000000       -2.00000000000000       2.057730256153843E-002
  -1.92000000000000       -1.96000000000000       2.108090008015777E-002
  -1.92000000000000       -1.92000000000000       2.166884535532669E-002
  -1.92000000000000       -1.88000000000000       2.233742626983067E-002
  -1.92000000000000       -1.84000000000000       2.308319167832987E-002
  -1.92000000000000       -1.80000000000000       2.390297647894416E-002
  -1.92000000000000       -1.76000000000000       2.479392174465600E-002
  -1.92000000000000       -1.72000000000000       2.575349038555002E-002
  -1.92000000000000       -1.68000000000000       2.677947878840297E-002
  -1.92000000000000       -1.64000000000000       2.787002485639329E-002
  -1.92000000000000       -1.60000000000000       2.902361284844893E-002
  -1.92000000000000       -1.56000000000000       3.023907539534428E-002
  -1.92000000000000       -1.52000000000000       3.151559304771027E-002
  -1.92000000000000       -1.48000000000000       3.285269168995400E-002
  -1.92000000000000       -1.44000000000000       3.425023813349624E-002
  -1.92000000000000       -1.40000000000000       3.570843418279030E-002
  -1.92000000000000       -1.36000000000000       3.722780944828669E-002
  -1.92000000000000       -1.32000000000000       3.880921316182352E-002
  -1.92000000000000       -1.28000000000000       4.045380523185800E-002
  -1.92000000000000       -1.24000000000000       4.216304675855422E-002
  -1.92000000000000       -1.20000000000000       4.393869021188614E-002
  -1.92000000000000       -1.16000000000000       4.578276945974079E-002
  -1.92000000000000       -1.12000000000000       4.769758981740077E-002
  -1.92000000000000       -1.08000000000000       4.968571827479563E-002
  -1.92000000000000       -1.04000000000000       5.174997404353694E-002
  -1.92000000000000       -1.00000000000000       5.389341955194954E-002
  -1.92000000000000      -0.960000000000000       5.611935200312745E-002
  -1.92000000000000      -0.920000000000000       5.843129559843732E-002
  -1.92000000000000      -0.880000000000000       6.083299451686760E-002
  -1.92000000000000      -0.840000000000000       6.332840672919934E-002
  -1.92000000000000      -0.800000000000000       6.592169871509647E-002
  -1.92000000000000      -0.760000000000000       6.861724114097011E-002
  -1.92000000000000      -0.720000000000000       7.141960554670651E-002
  -1.92000000000000      -0.680000000000000       7.433356208026366E-002
  -1.92000000000000      -0.640000000000000       7.736407831051122E-002
  -1.92000000000000      -0.600000000000000       8.051631914070120E-002
  -1.92000000000000      -0.560000000000000       8.379564783747696E-002
  -1.92000000000000      -0.520000000000000       8.720762818341583E-002
  -1.92000000000000      -0.480000000000000       9.075802775474091E-002
  -1.92000000000000      -0.440000000000000       9.445282232000753E-002
  -1.92000000000000      -0.400000000000000       9.829820135030544E-002
  -1.92000000000000      -0.360000000000000       0.102300574626745     
  -1.92000000000000      -0.320000000000000       0.106466579926819     
  -1.92000000000000      -0.280000000000000       0.110803091767519     
  -1.92000000000000      -0.240000000000000       0.115317231179938     
  -1.92000000000000      -0.200000000000000       0.120016376487470     
  -1.92000000000000      -0.160000000000000       0.124908175057555     
  -1.92000000000000      -0.120000000000000       0.130000555995364     
  -1.92000000000000      -8.000000000000007E-002  0.135301743746680     
  -1.92000000000000      -4.000000000000004E-002  0.140820272576660     
  -1.92000000000000       0.000000000000000E+000  0.146565001891069     
  -1.92000000000000       4.000000000000004E-002  0.152545132366981     
  -1.92000000000000       8.000000000000007E-002  0.158770222860856     
  -1.92000000000000       0.120000000000000       0.165250208063287     
  -1.92000000000000       0.160000000000000       0.171995416871575     
  -1.92000000000000       0.200000000000000       0.179016591453700     
  -1.92000000000000       0.240000000000000       0.186324906980034     
  -1.92000000000000       0.280000000000000       0.193931992002508     
  -1.92000000000000       0.320000000000000       0.201849949464710     
  -1.92000000000000       0.360000000000000       0.210091378330644     
  -1.92000000000000       0.400000000000000       0.218669395824607     
  -1.92000000000000       0.440000000000000       0.227597660279818     
  -1.92000000000000       0.480000000000000       0.236890394599046     
  -1.92000000000000       0.520000000000000       0.246562410336614     
  -1.92000000000000       0.560000000000000       0.256629132417624     
  -1.92000000000000       0.600000000000000       0.267106624517299     
  -1.92000000000000       0.640000000000000       0.278011615130683     
  -1.92000000000000       0.680000000000000       0.289361524370867     
  -1.92000000000000       0.720000000000000       0.301174491542124     
  -1.92000000000000       0.760000000000000       0.313469403543111     
  -1.92000000000000       0.800000000000000       0.326265924164402     
  -1.92000000000000       0.840000000000000       0.339584524354195     
  -1.92000000000000       0.880000000000000       0.353446513536002     
  -1.92000000000000       0.920000000000000       0.367874072072542     
  -1.92000000000000       0.960000000000000       0.382890284980839     
  -1.92000000000000        1.00000000000000       0.398519177014752     
  -1.92000000000000        1.04000000000000       0.414785749242768     
  -1.92000000000000        1.08000000000000       0.431716017260893     
  -1.92000000000000        1.12000000000000       0.449337051192896     
  -1.92000000000000        1.16000000000000       0.467677017642925     
  -1.92000000000000        1.20000000000000       0.486765223778726     
  -1.92000000000000        1.24000000000000       0.506632163737230     
  -1.92000000000000        1.28000000000000       0.527309567558255     
  -1.92000000000000        1.32000000000000       0.548830452866323     
  -1.92000000000000        1.36000000000000       0.571229179535351     
  -1.92000000000000        1.40000000000000       0.594541507585978     
  -1.92000000000000        1.44000000000000       0.618804658580737     
  -1.92000000000000        1.48000000000000       0.644057380798048     
  -1.92000000000000        1.52000000000000       0.670340018482146     
  -1.92000000000000        1.56000000000000       0.697694585482548     
  -1.92000000000000        1.60000000000000       0.726164843613485     
  -1.92000000000000        1.64000000000000       0.755796386080928     
  -1.92000000000000        1.68000000000000       0.786636726342329     
  -1.92000000000000        1.72000000000000       0.818735392782085     
  -1.92000000000000        1.76000000000000       0.852144029603877     
  -1.92000000000000        1.80000000000000       0.886916504359619     
  -1.92000000000000        1.84000000000000       0.923109022553535     
  -1.92000000000000        1.88000000000000       0.960780249779074     
  -1.92000000000000        1.92000000000000       0.999991441865863     
  -1.92000000000000        1.96000000000000        1.04080658353368     
  -1.92000000000000        2.00000000000000        1.08329253607051     
  -1.88000000000000       -2.00000000000000       2.122280122252962E-002
  -1.88000000000000       -1.96000000000000       2.182955859753007E-002
  -1.88000000000000       -1.92000000000000       2.251082359745438E-002
  -1.88000000000000       -1.88000000000000       2.326415468374429E-002
  -1.88000000000000       -1.84000000000000       2.408727778262367E-002
  -1.88000000000000       -1.80000000000000       2.497811680780332E-002
  -1.88000000000000       -1.76000000000000       2.593481905503982E-002
  -1.88000000000000       -1.72000000000000       2.695577594243181E-002
  -1.88000000000000       -1.68000000000000       2.803963954596842E-002
  -1.88000000000000       -1.64000000000000       2.918533535611422E-002
  -1.88000000000000       -1.60000000000000       3.039207165812565E-002
  -1.88000000000000       -1.56000000000000       3.165934591637410E-002
  -1.88000000000000       -1.52000000000000       3.298694852117764E-002
  -1.88000000000000       -1.48000000000000       3.437496423545035E-002
  -1.88000000000000       -1.44000000000000       3.582377165802536E-002
  -1.88000000000000       -1.40000000000000       3.733404100061150E-002
  -1.88000000000000       -1.36000000000000       3.890673045609597E-002
  -1.88000000000000       -1.32000000000000       4.054308141728878E-002
  -1.88000000000000       -1.28000000000000       4.224461278721833E-002
  -1.88000000000000       -1.24000000000000       4.401311460469497E-002
  -1.88000000000000       -1.20000000000000       4.585064119211521E-002
  -1.88000000000000       -1.16000000000000       4.775950401629533E-002
  -1.88000000000000       -1.12000000000000       4.974226443761959E-002
  -1.88000000000000       -1.08000000000000       5.180172650779526E-002
  -1.88000000000000       -1.04000000000000       5.394092996220853E-002
  -1.88000000000000       -1.00000000000000       5.616314353908227E-002
  -1.88000000000000      -0.960000000000000       5.847185874452226E-002
  -1.88000000000000      -0.920000000000000       6.087078416992121E-002
  -1.88000000000000      -0.880000000000000       6.336384045624464E-002
  -1.88000000000000      -0.840000000000000       6.595515598828226E-002
  -1.88000000000000      -0.800000000000000       6.864906339113490E-002
  -1.88000000000000      -0.760000000000000       7.145009689094181E-002
  -1.88000000000000      -0.720000000000000       7.436299059216188E-002
  -1.88000000000000      -0.680000000000000       7.739267771458984E-002
  -1.88000000000000      -0.640000000000000       8.054429082472798E-002
  -1.88000000000000      -0.600000000000000       8.382316308812550E-002
  -1.88000000000000      -0.560000000000000       8.723483056183100E-002
  -1.88000000000000      -0.520000000000000       9.078503553920081E-002
  -1.88000000000000      -0.480000000000000       9.447973095294607E-002
  -1.88000000000000      -0.440000000000000       9.832508583646729E-002
  -1.88000000000000      -0.400000000000000       0.102327491838262     
  -1.88000000000000      -0.360000000000000       0.106493570779412     
  -1.88000000000000      -0.320000000000000       0.110830183239960     
  -1.88000000000000      -0.280000000000000       0.115344438156279     
  -1.88000000000000      -0.240000000000000       0.120043703408362     
  -1.88000000000000      -0.200000000000000       0.124935617373320     
  -1.88000000000000      -0.160000000000000       0.130028101419208     
  -1.88000000000000      -0.120000000000000       0.135329373311707     
  -1.88000000000000      -8.000000000000007E-002  0.140847961505023     
  -1.88000000000000      -4.000000000000004E-002  0.146592720287790     
  -1.88000000000000       0.000000000000000E+000  0.152572845754597     
  -1.88000000000000       4.000000000000004E-002  0.158797892574177     
  -1.88000000000000       8.000000000000007E-002  0.165277791526124     
  -1.88000000000000       0.120000000000000       0.172022867779378     
  -1.88000000000000       0.160000000000000       0.179043859887555     
  -1.88000000000000       0.200000000000000       0.186351939478504     
  -1.88000000000000       0.240000000000000       0.193958731618271     
  -1.88000000000000       0.280000000000000       0.201876335832926     
  -1.88000000000000       0.320000000000000       0.210117347775414     
  -1.88000000000000       0.360000000000000       0.218694881528825     
  -1.88000000000000       0.400000000000000       0.227622592542106     
  -1.88000000000000       0.440000000000000       0.236914701199361     
  -1.88000000000000       0.480000000000000       0.246586017029470     
  -1.88000000000000       0.520000000000000       0.256651963568750     
  -1.88000000000000       0.560000000000000       0.267128603895853     
  -1.88000000000000       0.600000000000000       0.278032666865014     
  -1.88000000000000       0.640000000000000       0.289381574071076     
  -1.88000000000000       0.680000000000000       0.301193467587516     
  -1.88000000000000       0.720000000000000       0.313487238526899     
  -1.88000000000000       0.760000000000000       0.326282556481797     
  -1.88000000000000       0.800000000000000       0.339599899913297     
  -1.88000000000000       0.840000000000000       0.353460587563664     
  -1.88000000000000       0.880000000000000       0.367886810979630     
  -1.88000000000000       0.920000000000000       0.382901668243063     
  -1.88000000000000       0.960000000000000       0.398529199016490     
  -1.88000000000000        1.00000000000000       0.414794421022039     
  -1.88000000000000        1.04000000000000       0.431723368083881     
  -1.88000000000000        1.08000000000000       0.449343129876147     
  -1.88000000000000        1.12000000000000       0.467681893530607     
  -1.88000000000000        1.16000000000000       0.486768987271034     
  -1.88000000000000        1.20000000000000       0.506634926254308     
  -1.88000000000000        1.24000000000000       0.527311460811695     
  -1.88000000000000        1.28000000000000       0.548831627297581     
  -1.88000000000000        1.32000000000000       0.571229801767166     
  -1.88000000000000        1.36000000000000       0.594541756719115     
  -1.88000000000000        1.40000000000000       0.618804721154156     
  -1.88000000000000        1.44000000000000       0.644057444215864     
  -1.88000000000000        1.48000000000000       0.670340262695520     
  -1.88000000000000        1.52000000000000       0.697695172698941     
  -1.88000000000000        1.56000000000000       0.726165905789512     
  -1.88000000000000        1.60000000000000       0.755798009938344     
  -1.88000000000000        1.64000000000000       0.786638935629521     
  -1.88000000000000        1.68000000000000       0.818738127485769     
  -1.88000000000000        1.72000000000000       0.852147121797565     
  -1.88000000000000        1.76000000000000       0.886919650356778     
  -1.88000000000000        1.80000000000000       0.923111751014257     
  -1.88000000000000        1.84000000000000       0.960781885399471     
  -1.88000000000000        1.88000000000000       0.999991064259340     
  -1.88000000000000        1.92000000000000        1.04080298089266     
  -1.88000000000000        1.96000000000000        1.08328415317622     
  -1.88000000000000        2.00000000000000        1.12750407469851     
  -1.84000000000000       -2.00000000000000       2.192025055882423E-002
  -1.84000000000000       -1.96000000000000       2.262058411078719E-002
  -1.84000000000000       -1.92000000000000       2.338716010853144E-002
  -1.84000000000000       -1.88000000000000       2.421866373785828E-002
  -1.84000000000000       -1.84000000000000       2.511386463604243E-002