 variables= "x","y","fPC"
 zone i=         101  j=         101  datapacking=point
  0.250000000000000       0.250000000000000       0.886722091555342     
  0.250000000000000       0.265000000000000       0.878663777793101     
  0.250000000000000       0.280000000000000       0.870420131353625     
  0.250000000000000       0.295000000000000       0.861993779820254     
  0.250000000000000       0.310000000000000       0.853387350776326     
  0.250000000000000       0.325000000000000       0.844603471805181     
  0.250000000000000       0.340000000000000       0.835644770490160     
  0.250000000000000       0.355000000000000       0.826513874414603     
  0.250000000000000       0.370000000000000       0.817213411161849     
  0.250000000000000       0.385000000000000       0.807746008315238     
  0.250000000000000       0.400000000000000       0.798114293458111     
  0.250000000000000       0.415000000000000       0.788320894173806     
  0.250000000000000       0.430000000000000       0.778368438045665     
  0.250000000000000       0.445000000000000       0.768259552657025     
  0.250000000000000       0.460000000000000       0.757996865591229     
  0.250000000000000       0.475000000000000       0.747583004431615     
  0.250000000000000       0.490000000000000       0.737020596761523     
  0.250000000000000       0.505000000000000       0.726312270164294     
  0.250000000000000       0.520000000000000       0.715460652223267     
  0.250000000000000       0.535000000000000       0.704468370521781     
  0.250000000000000       0.550000000000000       0.693338052643178     
  0.250000000000000       0.565000000000000       0.682072326170796     
  0.250000000000000       0.580000000000000       0.670673818687976     
  0.250000000000000       0.595000000000000       0.659145157778057     
  0.250000000000000       0.610000000000000       0.647488971024380     
  0.250000000000000       0.625000000000000       0.635707886010284     
  0.250000000000000       0.640000000000000       0.623804530319108     
  0.250000000000000       0.655000000000000       0.611781531534194     
  0.250000000000000       0.670000000000000       0.599641517238881     
  0.250000000000000       0.685000000000000       0.587387115016509     
  0.250000000000000       0.700000000000000       0.575020952450417     
  0.250000000000000       0.715000000000000       0.562545657123945     
  0.250000000000000       0.730000000000000       0.549963856620434     
  0.250000000000000       0.745000000000000       0.537278178523223     
  0.250000000000000       0.760000000000000       0.524491250415652     
  0.250000000000000       0.775000000000000       0.511605699881061     
  0.250000000000000       0.790000000000000       0.498624154502790     
  0.250000000000000       0.805000000000000       0.485549241864179     
  0.250000000000000       0.820000000000000       0.472383589548567     
  0.250000000000000       0.835000000000000       0.459129825139294     
  0.250000000000000       0.850000000000000       0.445790576219701     
  0.250000000000000       0.865000000000000       0.432368470373128     
  0.250000000000000       0.880000000000000       0.418866135182913     
  0.250000000000000       0.895000000000000       0.405286198232397     
  0.250000000000000       0.910000000000000       0.391631287104920     
  0.250000000000000       0.925000000000000       0.377904029383822     
  0.250000000000000       0.940000000000000       0.364107052652442     
  0.250000000000000       0.955000000000000       0.350242984494121     
  0.250000000000000       0.970000000000000       0.336314452492198     
  0.250000000000000       0.985000000000000       0.322324084230013     
  0.250000000000000        1.00000000000000       0.308274507290906     
  0.250000000000000        1.01500000000000       0.294168349258218     
  0.250000000000000        1.03000000000000       0.280008237715287     
  0.250000000000000        1.04500000000000       0.265796800245454     
  0.250000000000000        1.06000000000000       0.251536664432058     
  0.250000000000000        1.07500000000000       0.237230457858439     
  0.250000000000000        1.09000000000000       0.222880808107939     
  0.250000000000000        1.10500000000000       0.208490342763895     
  0.250000000000000        1.12000000000000       0.194061689409648     
  0.250000000000000        1.13500000000000       0.179597475628538     
  0.250000000000000        1.15000000000000       0.165100329003906     
  0.250000000000000        1.16500000000000       0.150572877119089     
  0.250000000000000        1.18000000000000       0.136017747557430     
  0.250000000000000        1.19500000000000       0.121437567902266     
  0.250000000000000        1.21000000000000       0.106834965736939     
  0.250000000000000        1.22500000000000       9.221256864478866E-002
  0.250000000000000        1.24000000000000       7.757300420915413E-002
  0.250000000000000        1.25500000000000       6.291890001337506E-002
  0.250000000000000        1.27000000000000       4.825288364079219E-002
  0.250000000000000        1.28500000000000       3.357758267474512E-002
  0.250000000000000        1.30000000000000       1.889562469857337E-002
  0.250000000000000        1.31500000000000       4.209637295617019E-003
  0.250000000000000        1.33000000000000      -1.047775195078410E-002
  0.250000000000000        1.34500000000000      -2.516391545728991E-002
  0.250000000000000        1.36000000000000      -3.984622564056062E-002
  0.250000000000000        1.37500000000000      -5.452205491725637E-002
  0.250000000000000        1.39000000000000      -6.918877570403759E-002
  0.250000000000000        1.40500000000000      -8.384376041756397E-002
  0.250000000000000        1.42000000000000      -9.848438147449573E-002
  0.250000000000000        1.43500000000000      -0.113108011291493     
  0.250000000000000        1.45000000000000      -0.127712022285216     
  0.250000000000000        1.46500000000000      -0.142293786872325     
  0.250000000000000        1.48000000000000      -0.156850677469480     
  0.250000000000000        1.49500000000000      -0.171380066493341     
  0.250000000000000        1.51000000000000      -0.185879326360569     
  0.250000000000000        1.52500000000000      -0.200345829487822     
  0.250000000000000        1.54000000000000      -0.214776948291762     
  0.250000000000000        1.55500000000000      -0.229170055189049     
  0.250000000000000        1.57000000000000      -0.243522522596342     
  0.250000000000000        1.58500000000000      -0.257831722930302     
  0.250000000000000        1.60000000000000      -0.272095028607589     
  0.250000000000000        1.61500000000000      -0.286309812044863     
  0.250000000000000        1.63000000000000      -0.300473445658785     
  0.250000000000000        1.64500000000000      -0.314583301866014     
  0.250000000000000        1.66000000000000      -0.328636753083210     
  0.250000000000000        1.67500000000000      -0.342631171727033     
  0.250000000000000        1.69000000000000      -0.356563930214145     
  0.250000000000000        1.70500000000000      -0.370432400961205     
  0.250000000000000        1.72000000000000      -0.384233956384872     
  0.250000000000000        1.73500000000000      -0.397965968901807     
  0.250000000000000        1.75000000000000      -0.411625810928671     
  0.265000000000000       0.250000000000000       0.878860350983565     
  0.265000000000000       0.265000000000000       0.870615378013205     
  0.265000000000000       0.280000000000000       0.862187716575794     
  0.265000000000000       0.295000000000000       0.853579994254674     
  0.265000000000000       0.310000000000000       0.844794838633183     
  0.265000000000000       0.325000000000000       0.835834877294662     
  0.265000000000000       0.340000000000000       0.826702737822451     
  0.265000000000000       0.355000000000000       0.817401047799889     
  0.265000000000000       0.370000000000000       0.807932434810316     
  0.265000000000000       0.385000000000000       0.798299526437073     
  0.265000000000000       0.400000000000000       0.788504950263498     
  0.265000000000000       0.415000000000000       0.778551333872933     
  0.265000000000000       0.430000000000000       0.768441304848716     
  0.265000000000000       0.445000000000000       0.758177490774188     
  0.265000000000000       0.460000000000000       0.747762519232689     
  0.265000000000000       0.475000000000000       0.737199017807558     
  0.265000000000000       0.490000000000000       0.726489614082135     
  0.265000000000000       0.505000000000000       0.715636935639761     
  0.265000000000000       0.520000000000000       0.704643610063774     
  0.265000000000000       0.535000000000000       0.693512264937516     
  0.265000000000000       0.550000000000000       0.682245527844325     
  0.265000000000000       0.565000000000000       0.670846026367542     
  0.265000000000000       0.580000000000000       0.659316388090507     
  0.265000000000000       0.595000000000000       0.647659240596559     
  0.265000000000000       0.610000000000000       0.635877211469038     
  0.265000000000000       0.625000000000000       0.623972928291284     
  0.265000000000000       0.640000000000000       0.611949018646638     
  0.265000000000000       0.655000000000000       0.599808110118438     
  0.265000000000000       0.670000000000000       0.587552830290025     
  0.265000000000000       0.685000000000000       0.575185806744739     
  0.265000000000000       0.700000000000000       0.562709667065920     
  0.265000000000000       0.715000000000000       0.550127038836907     
  0.265000000000000       0.730000000000000       0.537440549641039     
  0.265000000000000       0.745000000000000       0.524652827061659     
  0.265000000000000       0.760000000000000       0.511766498682104     
  0.265000000000000       0.775000000000000       0.498784192085716     
  0.265000000000000       0.790000000000000       0.485708534855833     
  0.265000000000000       0.805000000000000       0.472542154575795     
  0.265000000000000       0.820000000000000       0.459287678828943     
  0.265000000000000       0.835000000000000       0.445947735198617     
  0.265000000000000       0.850000000000000       0.432524951268156     
  0.265000000000000       0.865000000000000       0.419021954620900     
  0.265000000000000       0.880000000000000       0.405441372840189     
  0.265000000000000       0.895000000000000       0.391785833509363     
  0.265000000000000       0.910000000000000       0.378057964211762     
  0.265000000000000       0.925000000000000       0.364260392530726     
  0.265000000000000       0.940000000000000       0.350395746049594     
  0.265000000000000       0.955000000000000       0.336466652351706     
  0.265000000000000       0.970000000000000       0.322475739020403     
  0.265000000000000       0.985000000000000       0.308425633639023     
  0.265000000000000        1.00000000000000       0.294318963790908     
  0.265000000000000        1.01500000000000       0.280158357059397     
  0.265000000000000        1.03000000000000       0.265946441027830     
  0.265000000000000        1.04500000000000       0.251685843279546     
  0.265000000000000        1.06000000000000       0.237379191397886     
  0.265000000000000        1.07500000000000       0.223029112966189     
  0.265000000000000        1.09000000000000       0.208638235567795     
  0.265000000000000        1.10500000000000       0.194209186786045     
  0.265000000000000        1.12000000000000       0.179744594204277     
  0.265000000000000        1.13500000000000       0.165247085405833     
  0.265000000000000        1.15000000000000       0.150719287974051     
  0.265000000000000        1.16500000000000       0.136163829492272     
  0.265000000000000        1.18000000000000       0.121583337543835     
  0.265000000000000        1.19500000000000       0.106980439712081     
  0.265000000000000        1.21000000000000       9.235776358034901E-002
  0.265000000000000        1.22500000000000       7.771793673197919E-002
  0.265000000000000        1.24000000000000       6.306358675031162E-002
  0.265000000000000        1.25500000000000       4.839734121868541E-002
  0.265000000000000        1.27000000000000       3.372182772044141E-002
  0.265000000000000        1.28500000000000       1.903967383891944E-002
  0.265000000000000        1.30000000000000       4.353507157458442E-003
  0.265000000000000        1.31500000000000      -1.033404474060148E-002
  0.265000000000000        1.33000000000000      -2.502035427191993E-002
  0.265000000000000        1.34500000000000      -3.970279385315714E-002
  0.265000000000000        1.36000000000000      -5.437873590097314E-002
  0.265000000000000        1.37500000000000      -6.904555283202851E-002
  0.265000000000000        1.39000000000000      -8.370061706298321E-002
  0.265000000000000        1.40500000000000      -9.834130101049710E-002
  0.265000000000000        1.42000000000000      -0.112964977091230     
  0.265000000000000        1.43500000000000      -0.127569017721843     
  0.265000000000000        1.45000000000000      -0.142150795318996     
  0.265000000000000        1.46500000000000      -0.156707682299349     
  0.265000000000000        1.48000000000000      -0.171237051079562     
  0.265000000000000        1.49500000000000      -0.185736274076294     
  0.265000000000000        1.51000000000000      -0.200202723706207     
  0.265000000000000        1.52500000000000      -0.214633772385961     
  0.265000000000000        1.54000000000000      -0.229026792532215     
  0.265000000000000        1.55500000000000      -0.243379156561629     
  0.265000000000000        1.57000000000000      -0.257688236890864     
  0.265000000000000        1.58500000000000      -0.271951405936581     
  0.265000000000000        1.60000000000000      -0.286166036115438     
  0.265000000000000        1.61500000000000      -0.300329499844096     
  0.265000000000000        1.63000000000000      -0.314439169539216     
  0.265000000000000        1.64500000000000      -0.328492417617457     
  0.265000000000000        1.66000000000000      -0.342486616495479     
  0.265000000000000        1.67500000000000      -0.356419138589943     
  0.265000000000000        1.69000000000000      -0.370287356317509     
  0.265000000000000        1.70500000000000      -0.384088642094837     
  0.265000000000000        1.72000000000000      -0.397820368338586     
  0.265000000000000        1.73500000000000      -0.411479907465419     
  0.265000000000000        1.75000000000000      -0.425064631891993     
  0.280000000000000       0.250000000000000       0.870800245616593     
  0.280000000000000       0.265000000000000       0.862371366720351     
  0.280000000000000       0.280000000000000       0.853762443567244     
  0.280000000000000       0.295000000000000       0.844976103740613     
  0.280000000000000       0.310000000000000       0.836014974823799     
  0.280000000000000       0.325000000000000       0.826881684400140     
  0.280000000000000       0.340000000000000       0.817578860052976     
  0.280000000000000       0.355000000000000       0.808109129365647     
  0.280000000000000       0.370000000000000       0.798475119921495     
  0.280000000000000       0.385000000000000       0.788679459303857     
  0.280000000000000       0.400000000000000       0.778724775096074     
  0.280000000000000       0.415000000000000       0.768613694881486     
  0.280000000000000       0.430000000000000       0.758348846243433     
  0.280000000000000       0.445000000000000       0.747932856765254     
  0.280000000000000       0.460000000000000       0.737368354030290     
  0.280000000000000       0.475000000000000       0.726657965621881     
  0.280000000000000       0.490000000000000       0.715804319123365     
  0.280000000000000       0.505000000000000       0.704810042118084     
  0.280000000000000       0.520000000000000       0.693677762189377     
  0.280000000000000       0.535000000000000       0.682410106920583     
  0.280000000000000       0.550000000000000       0.671009703895044     
  0.280000000000000       0.565000000000000       0.659479180696098     
  0.280000000000000       0.580000000000000       0.647821164907086     
  0.280000000000000       0.595000000000000       0.636038284111347     
  0.280000000000000       0.610000000000000       0.624133165892221     
  0.280000000000000       0.625000000000000       0.612108437833048     
  0.280000000000000       0.640000000000000       0.599966727517169     
  0.280000000000000       0.655000000000000       0.587710662527922     
  0.280000000000000       0.670000000000000       0.575342870448648     
  0.280000000000000       0.685000000000000       0.562865978862687     
  0.280000000000000       0.700000000000000       0.550282615353378     
  0.280000000000000       0.715000000000000       0.537595407504061     
  0.280000000000000       0.730000000000000       0.524806982898077     
  0.280000000000000       0.745000000000000       0.511919969118765     
  0.280000000000000       0.760000000000000       0.498936993749465     
  0.280000000000000       0.775000000000000       0.485860684373517     
  0.280000000000000       0.790000000000000       0.472693668574260     
  0.280000000000000       0.805000000000000       0.459438573935035     
  0.280000000000000       0.820000000000000       0.446098028039182     
  0.280000000000000       0.835000000000000       0.432674658470040     
  0.280000000000000       0.850000000000000       0.419171092810949     
  0.280000000000000       0.865000000000000       0.405589958645249     
  0.280000000000000       0.880000000000000       0.391933883556281     
  0.280000000000000       0.895000000000000       0.378205495127383     
  0.280000000000000       0.910000000000000       0.364407420941896     
  0.280000000000000       0.925000000000000       0.350542288583160     
  0.280000000000000       0.940000000000000       0.336612725634514     
  0.280000000000000       0.955000000000000       0.322621359679298     
  0.280000000000000       0.970000000000000       0.308570818300853     
  0.280000000000000       0.985000000000000       0.294463729082518     
  0.280000000000000        1.00000000000000       0.280302719607633     
  0.280000000000000        1.01500000000000       0.266090417459537     
  0.280000000000000        1.03000000000000       0.251829450221571     
  0.280000000000000        1.04500000000000       0.237522445477076     
  0.280000000000000        1.06000000000000       0.223172030809389     
  0.280000000000000        1.07500000000000       0.208780833801852     
  0.280000000000000        1.09000000000000       0.194351482037804     
  0.280000000000000        1.10500000000000       0.179886603100585     
  0.280000000000000        1.12000000000000       0.165388824573536     
  0.280000000000000        1.13500000000000       0.150860774039994     
  0.280000000000000        1.15000000000000       0.136305079083302     
  0.280000000000000        1.16500000000000       0.121724367286798     
  0.280000000000000        1.18000000000000       0.107121266233823     
  0.280000000000000        1.19500000000000       9.249840350771650E-002
  0.280000000000000        1.21000000000000       7.785840669181766E-002
  0.280000000000000        1.22500000000000       6.320390336946710E-002
  0.280000000000000        1.24000000000000       4.853752112400483E-002
  0.280000000000000        1.25500000000000       3.386188753876995E-002
  0.280000000000000        1.27000000000000       1.917963019710314E-002
  0.280000000000000        1.28500000000000       4.493376682343841E-003
  0.280000000000000        1.30000000000000      -1.019424542216776E-002
  0.280000000000000        1.31500000000000      -2.488060853309262E-002
  0.280000000000000        1.33000000000000      -3.956308506709008E-002
  0.280000000000000        1.34500000000000      -5.423904744082000E-002
  0.280000000000000        1.36000000000000      -6.890586807094351E-002
  0.280000000000000        1.37500000000000      -8.356091937411969E-002
  0.280000000000000        1.39000000000000      -9.820157376700933E-002
  0.280000000000000        1.40500000000000      -0.112825203666273     
  0.280000000000000        1.42000000000000      -0.127429181488569     
  0.280000000000000        1.43500000000000      -0.142010879650560     
  0.280000000000000        1.45000000000000      -0.156567670568904     
  0.280000000000000        1.46500000000000      -0.171096926660261     
  0.280000000000000        1.48000000000000      -0.185596020341294     
  0.280000000000000        1.49500000000000      -0.200062324028660     
  0.280000000000000        1.51000000000000      -0.214493210139021     
  0.280000000000000        1.52500000000000      -0.228886051089035     
  0.280000000000000        1.54000000000000      -0.243238219295365     
  0.280000000000000        1.55500000000000      -0.257547087174669     
  0.280000000000000        1.57000000000000      -0.271810027143608     
  0.280000000000000        1.58500000000000      -0.286024411618842     
  0.280000000000000        1.60000000000000      -0.300187613017031     
  0.280000000000000        1.61500000000000      -0.314297003754834     
  0.280000000000000        1.63000000000000      -0.328349956248914     
  0.280000000000000        1.64500000000000      -0.342343842915929     
  0.280000000000000        1.66000000000000      -0.356276036172539     
  0.280000000000000        1.67500000000000      -0.370143908435405     
  0.280000000000000        1.69000000000000      -0.383944832121187     
  0.280000000000000        1.70500000000000      -0.397676179646545     
  0.280000000000000        1.72000000000000      -0.411335323428138     
  0.280000000000000        1.73500000000000      -0.424919635882629     
  0.280000000000000        1.75000000000000      -0.438426489426675     
  0.295000000000000       0.250000000000000       0.862544622506907     
  0.295000000000000       0.265000000000000       0.853934590967021     
  0.295000000000000       0.280000000000000       0.845147159380456     
  0.295000000000000       0.295000000000000       0.836184955330554     
  0.295000000000000       0.310000000000000       0.827050606400653     
  0.295000000000000       0.325000000000000       0.817746740174094     
  0.295000000000000       0.340000000000000       0.808275984234217     
  0.295000000000000       0.355000000000000       0.798640966164360     
  0.295000000000000       0.370000000000000       0.788844313547865     
  0.295000000000000       0.385000000000000       0.778888653968071     
  0.295000000000000       0.400000000000000       0.768776615008318     
  0.295000000000000       0.415000000000000       0.758510824251946     
  0.295000000000000       0.430000000000000       0.748093909282295     
  0.295000000000000       0.445000000000000       0.737528497682704     
  0.295000000000000       0.460000000000000       0.726817217036514     
  0.295000000000000       0.475000000000000       0.715962694927064     
  0.295000000000000       0.490000000000000       0.704967558937694     
  0.295000000000000       0.505000000000000       0.693834436651745     
  0.295000000000000       0.520000000000000       0.682565955652555     
  0.295000000000000       0.535000000000000       0.671164743523465     
  0.295000000000000       0.550000000000000       0.659633427847815     
  0.295000000000000       0.565000000000000       0.647974636208945     
  0.295000000000000       0.580000000000000       0.636190996190194     
  0.295000000000000       0.595000000000000       0.624285135374902     
  0.295000000000000       0.610000000000000       0.612259681346410     
  0.295000000000000       0.625000000000000       0.600117261688056     
  0.295000000000000       0.640000000000000       0.587860503983182     
  0.295000000000000       0.655000000000000       0.575492035815127     
  0.295000000000000       0.670000000000000       0.563014484767230     
  0.295000000000000       0.685000000000000       0.550430478422832     
  0.295000000000000       0.700000000000000       0.537742644365272     
  0.295000000000000       0.715000000000000       0.524953610177890     
  0.295000000000000       0.730000000000000       0.512066003444027     
  0.295000000000000       0.745000000000000       0.499082451747022     
  0.295000000000000       0.760000000000000       0.486005582670215     
  0.295000000000000       0.775000000000000       0.472838023796946     
  0.295000000000000       0.790000000000000       0.459582402710554     
  0.295000000000000       0.805000000000000       0.446241346994380     
  0.295000000000000       0.820000000000000       0.432817484231763     
  0.295000000000000       0.835000000000000       0.419313442006044     
  0.295000000000000       0.850000000000000       0.405731847900562     
  0.295000000000000       0.865000000000000       0.392075329498657     
  0.295000000000000       0.880000000000000       0.378346514383669     
  0.295000000000000       0.895000000000000       0.364548030138938     
  0.295000000000000       0.910000000000000       0.350682504347803     
  0.295000000000000       0.925000000000000       0.336752564593605     
  0.295000000000000       0.940000000000000       0.322760838459684     
  0.295000000000000       0.955000000000000       0.308709953529379     
  0.295000000000000       0.970000000000000       0.294602537386030     
  0.295000000000000       0.985000000000000       0.280441217612977     
  0.295000000000000        1.00000000000000       0.266228621793560     
  0.295000000000000        1.01500000000000       0.251967377511119     
  0.295000000000000        1.03000000000000       0.237660112348993     
  0.295000000000000        1.04500000000000       0.223309453890524     
  0.295000000000000        1.06000000000000       0.208918029719049     
  0.295000000000000        1.07500000000000       0.194488467417910     
  0.295000000000000        1.09000000000000       0.180023394570446     
  0.295000000000000        1.10500000000000       0.165525438759997     
  0.295000000000000        1.12000000000000       0.150997227569904     
  0.295000000000000        1.13500000000000       0.136441388583504     
  0.295000000000000        1.15000000000000       0.121860549384140     
  0.295000000000000        1.16500000000000       0.107257337555150     
  0.295000000000000        1.18000000000000       9.263438067987489E-002
  0.295000000000000        1.19500000000000       7.799430634165366E-002
  0.295000000000000        1.21000000000000       6.333974212382690E-002
  0.295000000000000        1.22500000000000       4.867331560973392E-002
  0.295000000000000        1.24000000000000       3.399765438271513E-002
  0.295000000000000        1.25500000000000       1.931538602610985E-002
  0.295000000000000        1.27000000000000       4.629138123258492E-003
  0.295000000000000        1.28500000000000      -1.005846174249889E-002
  0.295000000000000        1.30000000000000      -2.474478598782323E-002
  0.295000000000000        1.31500000000000      -3.942720702937469E-002
  0.295000000000000        1.33000000000000      -5.410309728381288E-002
  0.295000000000000        1.34500000000000      -6.876982916779764E-002
  0.295000000000000        1.36000000000000      -8.342477509798951E-002
  0.295000000000000        1.37500000000000      -9.806530749104858E-002
  0.295000000000000        1.39000000000000      -0.112688798763635     
  0.295000000000000        1.40500000000000      -0.127292621332409     
  0.295000000000000        1.42000000000000      -0.141874147614031     
  0.295000000000000        1.43500000000000      -0.156430750025160     
  0.295000000000000        1.45000000000000      -0.170959800982457     
  0.295000000000000        1.46500000000000      -0.185458672902582     
  0.295000000000000        1.48000000000000      -0.199924738202195     
  0.295000000000000        1.49500000000000      -0.214355369297956     
  0.295000000000000        1.51000000000000      -0.228747938606526     
  0.295000000000000        1.52500000000000      -0.243099818544564     
  0.295000000000000        1.54000000000000      -0.257408381528731     
  0.295000000000000        1.55500000000000      -0.271670999975686     
  0.295000000000000        1.57000000000000      -0.285885046302090     
  0.295000000000000        1.58500000000000      -0.300047892924603     
  0.295000000000000        1.60000000000000      -0.314156912259886     
  0.295000000000000        1.61500000000000      -0.328209476724597     
  0.295000000000000        1.63000000000000      -0.342202958735398     
  0.295000000000000        1.64500000000000      -0.356134730708948     
  0.295000000000000        1.66000000000000      -0.370002165061908     
  0.295000000000000        1.67500000000000      -0.383802634210937     
  0.295000000000000        1.69000000000000      -0.397533510572697     
  0.295000000000000        1.70500000000000      -0.411192166563846     
  0.295000000000000        1.72000000000000      -0.424775974601046     
  0.295000000000000        1.73500000000000      -0.438282307100955     
  0.295000000000000        1.75000000000000      -0.451708536480236     
  0.310000000000000       0.250000000000000       0.854096328706987     
  0.310000000000000       0.265000000000000       0.845307897805696     
  0.310000000000000       0.280000000000000       0.836344711067912     
  0.310000000000000       0.295000000000000       0.827209396076976     
  0.310000000000000       0.310000000000000       0.817904580416228     