 variables= "x","y","f"
 zone i=         101  j=         101  datapacking=point
  0.250000000000000       0.250000000000000       0.877582561890373     
  0.250000000000000       0.265000000000000       0.870292722298065     
  0.250000000000000       0.280000000000000       0.862807070514761     
  0.250000000000000       0.295000000000000       0.855127290780531     
  0.250000000000000       0.310000000000000       0.847255111013416     
  0.250000000000000       0.325000000000000       0.839192302420654     
  0.250000000000000       0.340000000000000       0.830940679100164     
  0.250000000000000       0.355000000000000       0.822502097632380     
  0.250000000000000       0.370000000000000       0.813878456662534     
  0.250000000000000       0.385000000000000       0.805071696473463     
  0.250000000000000       0.400000000000000       0.796083798549056     
  0.250000000000000       0.415000000000000       0.786916785128429     
  0.250000000000000       0.430000000000000       0.777572718750928     
  0.250000000000000       0.445000000000000       0.768053701792068     
  0.250000000000000       0.460000000000000       0.758361875990508     
  0.250000000000000       0.475000000000000       0.748499421966165     
  0.250000000000000       0.490000000000000       0.738468558729588     
  0.250000000000000       0.505000000000000       0.728271543182687     
  0.250000000000000       0.520000000000000       0.717910669610943     
  0.250000000000000       0.535000000000000       0.707388269167200     
  0.250000000000000       0.550000000000000       0.696706709347165     
  0.250000000000000       0.565000000000000       0.685868393456737     
  0.250000000000000       0.580000000000000       0.674875760071267     
  0.250000000000000       0.595000000000000       0.663731282486892     
  0.250000000000000       0.610000000000000       0.652437468164052     
  0.250000000000000       0.625000000000000       0.640996858163325     
  0.250000000000000       0.640000000000000       0.629412026573697     
  0.250000000000000       0.655000000000000       0.617685579933402     
  0.250000000000000       0.670000000000000       0.605820156643463     
  0.250000000000000       0.685000000000000       0.593818426374064     
  0.250000000000000       0.700000000000000       0.581683089463884     
  0.250000000000000       0.715000000000000       0.569416876312531     
  0.250000000000000       0.730000000000000       0.557022546766217     
  0.250000000000000       0.745000000000000       0.544502889496803     
  0.250000000000000       0.760000000000000       0.531860721374355     
  0.250000000000000       0.775000000000000       0.519098886833370     
  0.250000000000000       0.790000000000000       0.506220257232778     
  0.250000000000000       0.805000000000000       0.493227730209911     
  0.250000000000000       0.820000000000000       0.480124229028534     
  0.250000000000000       0.835000000000000       0.466912701921135     
  0.250000000000000       0.850000000000000       0.453596121425577     
  0.250000000000000       0.865000000000000       0.440177483716293     
  0.250000000000000       0.880000000000000       0.426659807930157     
  0.250000000000000       0.895000000000000       0.413046135487195     
  0.250000000000000       0.910000000000000       0.399339529406273     
  0.250000000000000       0.925000000000000       0.385543073615936     
  0.250000000000000       0.940000000000000       0.371659872260533     
  0.250000000000000       0.955000000000000       0.357693049001799     
  0.250000000000000       0.970000000000000       0.343645746316047     
  0.250000000000000       0.985000000000000       0.329521124787118     
  0.250000000000000        1.00000000000000       0.315322362395269     
  0.250000000000000        1.01500000000000       0.301052653802137     
  0.250000000000000        1.03000000000000       0.286715209631956     
  0.250000000000000        1.04500000000000       0.272313255749178     
  0.250000000000000        1.06000000000000       0.257850032532670     
  0.250000000000000        1.07500000000000       0.243328794146638     
  0.250000000000000        1.09000000000000       0.228752807808459     
  0.250000000000000        1.10500000000000       0.214125353053567     
  0.250000000000000        1.12000000000000       0.199449720997573     
  0.250000000000000        1.13500000000000       0.184729213595776     
  0.250000000000000        1.15000000000000       0.169967142900241     
  0.250000000000000        1.16500000000000       0.155166830314597     
  0.250000000000000        1.18000000000000       0.140331605846737     
  0.250000000000000        1.19500000000000       0.125464807359581     
  0.250000000000000        1.21000000000000       0.110569779820070     
  0.250000000000000        1.22500000000000       9.564987454656154E-002
  0.250000000000000        1.24000000000000       8.070844845480063E-002
  0.250000000000000        1.25500000000000       6.574886330262336E-002
  0.250000000000000        1.27000000000000       5.077448493357918E-002
  0.250000000000000        1.28500000000000       3.578868251962819E-002
  0.250000000000000        1.30000000000000       2.079482780309265E-002
  0.250000000000000        1.31500000000000       5.796294338028719E-003
  0.250000000000000        1.33000000000000      -9.203543268808336E-003
  0.250000000000000        1.34500000000000      -2.420131011723685E-002
  0.250000000000000        1.36000000000000      -3.919363177298749E-002
  0.250000000000000        1.37500000000000      -5.417713502693632E-002
  0.250000000000000        1.39000000000000      -6.914844865406217E-002
  0.250000000000000        1.40500000000000      -8.410420417195846E-002
  0.250000000000000        1.42000000000000      -9.904103659872801E-002
  0.250000000000000        1.43500000000000      -0.113955585210089     
  0.250000000000000        1.45000000000000      -0.128844494295525     
  0.250000000000000        1.46500000000000      -0.143704413913302     
  0.250000000000000        1.48000000000000      -0.158532000644198     
  0.250000000000000        1.49500000000000      -0.173323918343750     
  0.250000000000000        1.51000000000000      -0.188076838892880     
  0.250000000000000        1.52500000000000      -0.202787442946702     
  0.250000000000000        1.54000000000000      -0.217452420681365     
  0.250000000000000        1.55500000000000      -0.232068472538744     
  0.250000000000000        1.57000000000000      -0.246632309968834     
  0.250000000000000        1.58500000000000      -0.261140656169653     
  0.250000000000000        1.60000000000000      -0.275590246824513     
  0.250000000000000        1.61500000000000      -0.289977830836475     
  0.250000000000000        1.63000000000000      -0.304300171059833     
  0.250000000000000        1.64500000000000      -0.318554045028460     
  0.250000000000000        1.66000000000000      -0.332736245680845     
  0.250000000000000        1.67500000000000      -0.346843582081673     
  0.250000000000000        1.69000000000000      -0.360872880139767     
  0.250000000000000        1.70500000000000      -0.374820983322251     
  0.250000000000000        1.72000000000000      -0.388684753364752     
  0.250000000000000        1.73500000000000      -0.402461070977497     
  0.250000000000000        1.75000000000000      -0.416146836547142     
  0.265000000000000       0.250000000000000       0.870292722298065     
  0.265000000000000       0.265000000000000       0.862807070514761     
  0.265000000000000       0.280000000000000       0.855127290780531     
  0.265000000000000       0.295000000000000       0.847255111013416     
  0.265000000000000       0.310000000000000       0.839192302420654     
  0.265000000000000       0.325000000000000       0.830940679100163     
  0.265000000000000       0.340000000000000       0.822502097632380     
  0.265000000000000       0.355000000000000       0.813878456662534     
  0.265000000000000       0.370000000000000       0.805071696473463     
  0.265000000000000       0.385000000000000       0.796083798549056     
  0.265000000000000       0.400000000000000       0.786916785128429     
  0.265000000000000       0.415000000000000       0.777572718750928     
  0.265000000000000       0.430000000000000       0.768053701792068     
  0.265000000000000       0.445000000000000       0.758361875990508     
  0.265000000000000       0.460000000000000       0.748499421966165     
  0.265000000000000       0.475000000000000       0.738468558729588     
  0.265000000000000       0.490000000000000       0.728271543182687     
  0.265000000000000       0.505000000000000       0.717910669610943     
  0.265000000000000       0.520000000000000       0.707388269167200     
  0.265000000000000       0.535000000000000       0.696706709347165     
  0.265000000000000       0.550000000000000       0.685868393456737     
  0.265000000000000       0.565000000000000       0.674875760071267     
  0.265000000000000       0.580000000000000       0.663731282486892     
  0.265000000000000       0.595000000000000       0.652437468164052     
  0.265000000000000       0.610000000000000       0.640996858163325     
  0.265000000000000       0.625000000000000       0.629412026573697     
  0.265000000000000       0.640000000000000       0.617685579933402     
  0.265000000000000       0.655000000000000       0.605820156643463     
  0.265000000000000       0.670000000000000       0.593818426374064     
  0.265000000000000       0.685000000000000       0.581683089463884     
  0.265000000000000       0.700000000000000       0.569416876312531     
  0.265000000000000       0.715000000000000       0.557022546766217     
  0.265000000000000       0.730000000000000       0.544502889496803     
  0.265000000000000       0.745000000000000       0.531860721374355     
  0.265000000000000       0.760000000000000       0.519098886833370     
  0.265000000000000       0.775000000000000       0.506220257232778     
  0.265000000000000       0.790000000000000       0.493227730209910     
  0.265000000000000       0.805000000000000       0.480124229028534     
  0.265000000000000       0.820000000000000       0.466912701921135     
  0.265000000000000       0.835000000000000       0.453596121425577     
  0.265000000000000       0.850000000000000       0.440177483716293     
  0.265000000000000       0.865000000000000       0.426659807930157     
  0.265000000000000       0.880000000000000       0.413046135487195     
  0.265000000000000       0.895000000000000       0.399339529406273     
  0.265000000000000       0.910000000000000       0.385543073615936     
  0.265000000000000       0.925000000000000       0.371659872260533     
  0.265000000000000       0.940000000000000       0.357693049001799     
  0.265000000000000       0.955000000000000       0.343645746316047     
  0.265000000000000       0.970000000000000       0.329521124787118     
  0.265000000000000       0.985000000000000       0.315322362395269     
  0.265000000000000        1.00000000000000       0.301052653802137     
  0.265000000000000        1.01500000000000       0.286715209631955     
  0.265000000000000        1.03000000000000       0.272313255749178     
  0.265000000000000        1.04500000000000       0.257850032532670     
  0.265000000000000        1.06000000000000       0.243328794146638     
  0.265000000000000        1.07500000000000       0.228752807808459     
  0.265000000000000        1.09000000000000       0.214125353053567     
  0.265000000000000        1.10500000000000       0.199449720997573     
  0.265000000000000        1.12000000000000       0.184729213595776     
  0.265000000000000        1.13500000000000       0.169967142900241     
  0.265000000000000        1.15000000000000       0.155166830314597     
  0.265000000000000        1.16500000000000       0.140331605846737     
  0.265000000000000        1.18000000000000       0.125464807359581     
  0.265000000000000        1.19500000000000       0.110569779820070     
  0.265000000000000        1.21000000000000       9.564987454656154E-002
  0.265000000000000        1.22500000000000       8.070844845480041E-002
  0.265000000000000        1.24000000000000       6.574886330262358E-002
  0.265000000000000        1.25500000000000       5.077448493357918E-002
  0.265000000000000        1.27000000000000       3.578868251962797E-002
  0.265000000000000        1.28500000000000       2.079482780309265E-002
  0.265000000000000        1.30000000000000       5.796294338028719E-003
  0.265000000000000        1.31500000000000      -9.203543268808336E-003
  0.265000000000000        1.33000000000000      -2.420131011723707E-002
  0.265000000000000        1.34500000000000      -3.919363177298749E-002
  0.265000000000000        1.36000000000000      -5.417713502693632E-002
  0.265000000000000        1.37500000000000      -6.914844865406217E-002
  0.265000000000000        1.39000000000000      -8.410420417195869E-002
  0.265000000000000        1.40500000000000      -9.904103659872801E-002
  0.265000000000000        1.42000000000000      -0.113955585210089     
  0.265000000000000        1.43500000000000      -0.128844494295525     
  0.265000000000000        1.45000000000000      -0.143704413913303     
  0.265000000000000        1.46500000000000      -0.158532000644198     
  0.265000000000000        1.48000000000000      -0.173323918343750     
  0.265000000000000        1.49500000000000      -0.188076838892880     
  0.265000000000000        1.51000000000000      -0.202787442946702     
  0.265000000000000        1.52500000000000      -0.217452420681365     
  0.265000000000000        1.54000000000000      -0.232068472538744     
  0.265000000000000        1.55500000000000      -0.246632309968834     
  0.265000000000000        1.57000000000000      -0.261140656169653     
  0.265000000000000        1.58500000000000      -0.275590246824513     
  0.265000000000000        1.60000000000000      -0.289977830836475     
  0.265000000000000        1.61500000000000      -0.304300171059833     
  0.265000000000000        1.63000000000000      -0.318554045028460     
  0.265000000000000        1.64500000000000      -0.332736245680845     
  0.265000000000000        1.66000000000000      -0.346843582081673     
  0.265000000000000        1.67500000000000      -0.360872880139767     
  0.265000000000000        1.69000000000000      -0.374820983322251     
  0.265000000000000        1.70500000000000      -0.388684753364752     
  0.265000000000000        1.72000000000000      -0.402461070977497     
  0.265000000000000        1.73500000000000      -0.416146836547142     
  0.265000000000000        1.75000000000000      -0.429738970834171     
  0.280000000000000       0.250000000000000       0.862807070514761     
  0.280000000000000       0.265000000000000       0.855127290780531     
  0.280000000000000       0.280000000000000       0.847255111013416     
  0.280000000000000       0.295000000000000       0.839192302420654     
  0.280000000000000       0.310000000000000       0.830940679100163     
  0.280000000000000       0.325000000000000       0.822502097632380     
  0.280000000000000       0.340000000000000       0.813878456662534     
  0.280000000000000       0.355000000000000       0.805071696473463     
  0.280000000000000       0.370000000000000       0.796083798549056     
  0.280000000000000       0.385000000000000       0.786916785128429     
  0.280000000000000       0.400000000000000       0.777572718750928     
  0.280000000000000       0.415000000000000       0.768053701792068     
  0.280000000000000       0.430000000000000       0.758361875990508     
  0.280000000000000       0.445000000000000       0.748499421966165     
  0.280000000000000       0.460000000000000       0.738468558729588     
  0.280000000000000       0.475000000000000       0.728271543182687     
  0.280000000000000       0.490000000000000       0.717910669610943     
  0.280000000000000       0.505000000000000       0.707388269167200     
  0.280000000000000       0.520000000000000       0.696706709347165     
  0.280000000000000       0.535000000000000       0.685868393456737     
  0.280000000000000       0.550000000000000       0.674875760071267     
  0.280000000000000       0.565000000000000       0.663731282486892     
  0.280000000000000       0.580000000000000       0.652437468164052     
  0.280000000000000       0.595000000000000       0.640996858163325     
  0.280000000000000       0.610000000000000       0.629412026573697     
  0.280000000000000       0.625000000000000       0.617685579933402     
  0.280000000000000       0.640000000000000       0.605820156643463     
  0.280000000000000       0.655000000000000       0.593818426374064     
  0.280000000000000       0.670000000000000       0.581683089463883     
  0.280000000000000       0.685000000000000       0.569416876312531     
  0.280000000000000       0.700000000000000       0.557022546766217     
  0.280000000000000       0.715000000000000       0.544502889496803     
  0.280000000000000       0.730000000000000       0.531860721374355     
  0.280000000000000       0.745000000000000       0.519098886833370     
  0.280000000000000       0.760000000000000       0.506220257232778     
  0.280000000000000       0.775000000000000       0.493227730209911     
  0.280000000000000       0.790000000000000       0.480124229028534     
  0.280000000000000       0.805000000000000       0.466912701921135     
  0.280000000000000       0.820000000000000       0.453596121425577     
  0.280000000000000       0.835000000000000       0.440177483716293     
  0.280000000000000       0.850000000000000       0.426659807930157     
  0.280000000000000       0.865000000000000       0.413046135487195     
  0.280000000000000       0.880000000000000       0.399339529406273     
  0.280000000000000       0.895000000000000       0.385543073615936     
  0.280000000000000       0.910000000000000       0.371659872260533     
  0.280000000000000       0.925000000000000       0.357693049001799     
  0.280000000000000       0.940000000000000       0.343645746316047     
  0.280000000000000       0.955000000000000       0.329521124787118     
  0.280000000000000       0.970000000000000       0.315322362395269     
  0.280000000000000       0.985000000000000       0.301052653802137     
  0.280000000000000        1.00000000000000       0.286715209631956     
  0.280000000000000        1.01500000000000       0.272313255749178     
  0.280000000000000        1.03000000000000       0.257850032532670     
  0.280000000000000        1.04500000000000       0.243328794146638     
  0.280000000000000        1.06000000000000       0.228752807808459     
  0.280000000000000        1.07500000000000       0.214125353053567     
  0.280000000000000        1.09000000000000       0.199449720997573     
  0.280000000000000        1.10500000000000       0.184729213595776     
  0.280000000000000        1.12000000000000       0.169967142900241     
  0.280000000000000        1.13500000000000       0.155166830314597     
  0.280000000000000        1.15000000000000       0.140331605846737     
  0.280000000000000        1.16500000000000       0.125464807359581     
  0.280000000000000        1.18000000000000       0.110569779820070     
  0.280000000000000        1.19500000000000       9.564987454656154E-002
  0.280000000000000        1.21000000000000       8.070844845480063E-002
  0.280000000000000        1.22500000000000       6.574886330262336E-002
  0.280000000000000        1.24000000000000       5.077448493357918E-002
  0.280000000000000        1.25500000000000       3.578868251962797E-002
  0.280000000000000        1.27000000000000       2.079482780309243E-002
  0.280000000000000        1.28500000000000       5.796294338028719E-003
  0.280000000000000        1.30000000000000      -9.203543268808114E-003
  0.280000000000000        1.31500000000000      -2.420131011723685E-002
  0.280000000000000        1.33000000000000      -3.919363177298771E-002
  0.280000000000000        1.34500000000000      -5.417713502693632E-002
  0.280000000000000        1.36000000000000      -6.914844865406194E-002
  0.280000000000000        1.37500000000000      -8.410420417195846E-002
  0.280000000000000        1.39000000000000      -9.904103659872823E-002
  0.280000000000000        1.40500000000000      -0.113955585210089     
  0.280000000000000        1.42000000000000      -0.128844494295525     
  0.280000000000000        1.43500000000000      -0.143704413913302     
  0.280000000000000        1.45000000000000      -0.158532000644198     
  0.280000000000000        1.46500000000000      -0.173323918343750     
  0.280000000000000        1.48000000000000      -0.188076838892880     
  0.280000000000000        1.49500000000000      -0.202787442946702     
  0.280000000000000        1.51000000000000      -0.217452420681365     
  0.280000000000000        1.52500000000000      -0.232068472538744     
  0.280000000000000        1.54000000000000      -0.246632309968834     
  0.280000000000000        1.55500000000000      -0.261140656169653     
  0.280000000000000        1.57000000000000      -0.275590246824513     
  0.280000000000000        1.58500000000000      -0.289977830836475     
  0.280000000000000        1.60000000000000      -0.304300171059833     
  0.280000000000000        1.61500000000000      -0.318554045028460     
  0.280000000000000        1.63000000000000      -0.332736245680845     
  0.280000000000000        1.64500000000000      -0.346843582081673     
  0.280000000000000        1.66000000000000      -0.360872880139767     
  0.280000000000000        1.67500000000000      -0.374820983322251     
  0.280000000000000        1.69000000000000      -0.388684753364752     
  0.280000000000000        1.70500000000000      -0.402461070977497     
  0.280000000000000        1.72000000000000      -0.416146836547142     
  0.280000000000000        1.73500000000000      -0.429738970834170     
  0.280000000000000        1.75000000000000      -0.443234415665709     
  0.295000000000000       0.250000000000000       0.855127290780531     
  0.295000000000000       0.265000000000000       0.847255111013416     
  0.295000000000000       0.280000000000000       0.839192302420654     
  0.295000000000000       0.295000000000000       0.830940679100164     
  0.295000000000000       0.310000000000000       0.822502097632380     
  0.295000000000000       0.325000000000000       0.813878456662534     
  0.295000000000000       0.340000000000000       0.805071696473463     
  0.295000000000000       0.355000000000000       0.796083798549056     
  0.295000000000000       0.370000000000000       0.786916785128429     
  0.295000000000000       0.385000000000000       0.777572718750928     
  0.295000000000000       0.400000000000000       0.768053701792068     
  0.295000000000000       0.415000000000000       0.758361875990508     
  0.295000000000000       0.430000000000000       0.748499421966165     
  0.295000000000000       0.445000000000000       0.738468558729588     
  0.295000000000000       0.460000000000000       0.728271543182687     
  0.295000000000000       0.475000000000000       0.717910669610943     
  0.295000000000000       0.490000000000000       0.707388269167200     
  0.295000000000000       0.505000000000000       0.696706709347165     
  0.295000000000000       0.520000000000000       0.685868393456737     
  0.295000000000000       0.535000000000000       0.674875760071267     
  0.295000000000000       0.550000000000000       0.663731282486892     
  0.295000000000000       0.565000000000000       0.652437468164052     
  0.295000000000000       0.580000000000000       0.640996858163325     
  0.295000000000000       0.595000000000000       0.629412026573697     
  0.295000000000000       0.610000000000000       0.617685579933402     
  0.295000000000000       0.625000000000000       0.605820156643463     
  0.295000000000000       0.640000000000000       0.593818426374064     
  0.295000000000000       0.655000000000000       0.581683089463884     
  0.295000000000000       0.670000000000000       0.569416876312531     
  0.295000000000000       0.685000000000000       0.557022546766217     
  0.295000000000000       0.700000000000000       0.544502889496803     
  0.295000000000000       0.715000000000000       0.531860721374355     
  0.295000000000000       0.730000000000000       0.519098886833370     
  0.295000000000000       0.745000000000000       0.506220257232778     
  0.295000000000000       0.760000000000000       0.493227730209911     
  0.295000000000000       0.775000000000000       0.480124229028534     
  0.295000000000000       0.790000000000000       0.466912701921135     
  0.295000000000000       0.805000000000000       0.453596121425577     
  0.295000000000000       0.820000000000000       0.440177483716293     
  0.295000000000000       0.835000000000000       0.426659807930157     
  0.295000000000000       0.850000000000000       0.413046135487195     
  0.295000000000000       0.865000000000000       0.399339529406273     
  0.295000000000000       0.880000000000000       0.385543073615936     
  0.295000000000000       0.895000000000000       0.371659872260533     
  0.295000000000000       0.910000000000000       0.357693049001799     
  0.295000000000000       0.925000000000000       0.343645746316047     
  0.295000000000000       0.940000000000000       0.329521124787118     
  0.295000000000000       0.955000000000000       0.315322362395269     
  0.295000000000000       0.970000000000000       0.301052653802137     
  0.295000000000000       0.985000000000000       0.286715209631956     
  0.295000000000000        1.00000000000000       0.272313255749178     
  0.295000000000000        1.01500000000000       0.257850032532670     
  0.295000000000000        1.03000000000000       0.243328794146638     
  0.295000000000000        1.04500000000000       0.228752807808460     
  0.295000000000000        1.06000000000000       0.214125353053567     
  0.295000000000000        1.07500000000000       0.199449720997573     
  0.295000000000000        1.09000000000000       0.184729213595776     
  0.295000000000000        1.10500000000000       0.169967142900241     
  0.295000000000000        1.12000000000000       0.155166830314597     
  0.295000000000000        1.13500000000000       0.140331605846737     
  0.295000000000000        1.15000000000000       0.125464807359581     
  0.295000000000000        1.16500000000000       0.110569779820070     
  0.295000000000000        1.18000000000000       9.564987454656176E-002
  0.295000000000000        1.19500000000000       8.070844845480063E-002
  0.295000000000000        1.21000000000000       6.574886330262358E-002
  0.295000000000000        1.22500000000000       5.077448493357918E-002
  0.295000000000000        1.24000000000000       3.578868251962819E-002
  0.295000000000000        1.25500000000000       2.079482780309243E-002
  0.295000000000000        1.27000000000000       5.796294338028719E-003
  0.295000000000000        1.28500000000000      -9.203543268808114E-003
  0.295000000000000        1.30000000000000      -2.420131011723662E-002
  0.295000000000000        1.31500000000000      -3.919363177298749E-002
  0.295000000000000        1.33000000000000      -5.417713502693632E-002
  0.295000000000000        1.34500000000000      -6.914844865406194E-002
  0.295000000000000        1.36000000000000      -8.410420417195824E-002
  0.295000000000000        1.37500000000000      -9.904103659872801E-002
  0.295000000000000        1.39000000000000      -0.113955585210089     
  0.295000000000000        1.40500000000000      -0.128844494295525     
  0.295000000000000        1.42000000000000      -0.143704413913302     
  0.295000000000000        1.43500000000000      -0.158532000644198     
  0.295000000000000        1.45000000000000      -0.173323918343750     
  0.295000000000000        1.46500000000000      -0.188076838892880     
  0.295000000000000        1.48000000000000      -0.202787442946702     
  0.295000000000000        1.49500000000000      -0.217452420681364     
  0.295000000000000        1.51000000000000      -0.232068472538744     
  0.295000000000000        1.52500000000000      -0.246632309968834     
  0.295000000000000        1.54000000000000      -0.261140656169653     
  0.295000000000000        1.55500000000000      -0.275590246824513     
  0.295000000000000        1.57000000000000      -0.289977830836475     
  0.295000000000000        1.58500000000000      -0.304300171059833     
  0.295000000000000        1.60000000000000      -0.318554045028460     
  0.295000000000000        1.61500000000000      -0.332736245680845     
  0.295000000000000        1.63000000000000      -0.346843582081673     
  0.295000000000000        1.64500000000000      -0.360872880139767     
  0.295000000000000        1.66000000000000      -0.374820983322251     
  0.295000000000000        1.67500000000000      -0.388684753364752     
  0.295000000000000        1.69000000000000      -0.402461070977497     
  0.295000000000000        1.70500000000000      -0.416146836547142     
  0.295000000000000        1.72000000000000      -0.429738970834171     
  0.295000000000000        1.73500000000000      -0.443234415665709     
  0.295000000000000        1.75000000000000      -0.456630134623604     
  0.310000000000000       0.250000000000000       0.847255111013416     
  0.310000000000000       0.265000000000000       0.839192302420654     
  0.310000000000000       0.280000000000000       0.830940679100163     
  0.310000000000000       0.295000000000000       0.822502097632380     
  0.310000000000000       0.310000000000000       0.813878456662534     