 variables= "x","y","fpcb"
 zone i=          20  datapacking=point
  0.394366761211851       0.964280932945740       0.000000000000000E+000
  0.747155704760602       0.669640098251207       0.000000000000000E+000
   1.07093001980702        1.39113134763404       0.000000000000000E+000
   1.24584295949067       0.494559699602428       0.000000000000000E+000
   1.25762026693288        1.56487132407842       0.000000000000000E+000
  0.323826347682838       0.542343843571164       0.000000000000000E+000
   1.42442557095495       0.797978938111356       0.000000000000000E+000
  0.945571083721040        1.00701288011913       0.000000000000000E+000
   1.58820416211533        1.36547616844875       0.000000000000000E+000
  0.822352750547766        1.18296322060115       0.000000000000000E+000
  0.532678520495060       0.312848694997711       0.000000000000000E+000
   1.72789398945925        1.67301688228854       0.000000000000000E+000
  0.265576809598953       0.280144846390527       0.000000000000000E+000
   1.73185346421520       0.380290370983991       0.000000000000000E+000
   1.72432210163935       0.921661525196566       0.000000000000000E+000
   1.62587507291312       0.648795171717018       0.000000000000000E+000
   1.69652918310252        1.14929224815578       0.000000000000000E+000
  0.618208478527087        1.73762528207553       0.000000000000000E+000
  0.845626140881922        1.74646631589983       0.000000000000000E+000
  0.876029452487421       0.480016902798611       0.000000000000000E+000
