 variables= "x","y","fpcb"
 zone i=          20  datapacking=point
   1.42477179012221        1.62061146232623       0.000000000000000E+000
   1.26447662810694       0.366847423884832       0.000000000000000E+000
   1.68368860621799        1.35465333603452       0.000000000000000E+000
  0.379404757755765        1.40861882509422       0.000000000000000E+000
  0.905763605040161       0.406593388366984       0.000000000000000E+000
   1.54390993727787        1.11507831192670       0.000000000000000E+000
   1.11931586811821       0.746188654148696       0.000000000000000E+000
  0.341795568683366       0.942710384638065       0.000000000000000E+000
  0.808122942772011       0.758434672028515       0.000000000000000E+000
  0.747299220754502        1.63653279073081       0.000000000000000E+000
  0.608003329413832        1.20661382299027       0.000000000000000E+000
   1.21195755407778       0.558523069800292       0.000000000000000E+000
  0.276838592008814       0.250545415641616       0.000000000000000E+000
  0.269577999393565       0.558970070022649       0.000000000000000E+000
  0.482420907893453       0.385714397931883       0.000000000000000E+000
   1.69135362390892       0.774817869819544       0.000000000000000E+000
   1.66902521013694        1.74019927925665       0.000000000000000E+000
  0.991549978399990        1.73479045337212       0.000000000000000E+000
  0.691468225177336       0.510719611480248       0.000000000000000E+000
   1.27214202285600        1.20691745865943       0.000000000000000E+000
