 variables= "x","y","fPC"
 zone i=         101  j=         101  datapacking=point
  -2.00000000000000       -2.00000000000000        3609.00000000525     
  -2.00000000000000       -1.96000000000000        3561.16000000528     
  -2.00000000000000       -1.92000000000000        3513.64000000530     
  -2.00000000000000       -1.88000000000000        3466.44000000531     
  -2.00000000000000       -1.84000000000000        3419.56000000532     
  -2.00000000000000       -1.80000000000000        3373.00000000533     
  -2.00000000000000       -1.76000000000000        3326.76000000534     
  -2.00000000000000       -1.72000000000000        3280.84000000536     
  -2.00000000000000       -1.68000000000000        3235.24000000539     
  -2.00000000000000       -1.64000000000000        3189.96000000544     
  -2.00000000000000       -1.60000000000000        3145.00000000549     
  -2.00000000000000       -1.56000000000000        3100.36000000555     
  -2.00000000000000       -1.52000000000000        3056.04000000561     
  -2.00000000000000       -1.48000000000000        3012.04000000568     
  -2.00000000000000       -1.44000000000000        2968.36000000575     
  -2.00000000000000       -1.40000000000000        2925.00000000582     
  -2.00000000000000       -1.36000000000000        2881.96000000588     
  -2.00000000000000       -1.32000000000000        2839.24000000594     
  -2.00000000000000       -1.28000000000000        2796.84000000599     
  -2.00000000000000       -1.24000000000000        2754.76000000603     
  -2.00000000000000       -1.20000000000000        2713.00000000605     
  -2.00000000000000       -1.16000000000000        2671.56000000606     
  -2.00000000000000       -1.12000000000000        2630.44000000605     
  -2.00000000000000       -1.08000000000000        2589.64000000602     
  -2.00000000000000       -1.04000000000000        2549.16000000597     
  -2.00000000000000       -1.00000000000000        2509.00000000591     
  -2.00000000000000      -0.960000000000000        2469.16000000582     
  -2.00000000000000      -0.920000000000000        2429.64000000571     
  -2.00000000000000      -0.880000000000000        2390.44000000558     
  -2.00000000000000      -0.840000000000000        2351.56000000544     
  -2.00000000000000      -0.800000000000000        2313.00000000528     
  -2.00000000000000      -0.760000000000000        2274.76000000510     
  -2.00000000000000      -0.720000000000000        2236.84000000491     
  -2.00000000000000      -0.680000000000000        2199.24000000470     
  -2.00000000000000      -0.640000000000000        2161.96000000449     
  -2.00000000000000      -0.600000000000000        2125.00000000428     
  -2.00000000000000      -0.560000000000000        2088.36000000405     
  -2.00000000000000      -0.520000000000000        2052.04000000383     
  -2.00000000000000      -0.480000000000000        2016.04000000360     
  -2.00000000000000      -0.440000000000000        1980.36000000338     
  -2.00000000000000      -0.400000000000000        1945.00000000317     
  -2.00000000000000      -0.360000000000000        1909.96000000296     
  -2.00000000000000      -0.320000000000000        1875.24000000276     
  -2.00000000000000      -0.280000000000000        1840.84000000257     
  -2.00000000000000      -0.240000000000000        1806.76000000240     
  -2.00000000000000      -0.200000000000000        1773.00000000224     
  -2.00000000000000      -0.160000000000000        1739.56000000209     
  -2.00000000000000      -0.120000000000000        1706.44000000196     
  -2.00000000000000      -8.000000000000007E-002   1673.64000000185     
  -2.00000000000000      -4.000000000000004E-002   1641.16000000175     
  -2.00000000000000       0.000000000000000E+000   1609.00000000167     
  -2.00000000000000       4.000000000000004E-002   1577.16000000161     
  -2.00000000000000       8.000000000000007E-002   1545.64000000156     
  -2.00000000000000       0.120000000000000        1514.44000000153     
  -2.00000000000000       0.160000000000000        1483.56000000151     
  -2.00000000000000       0.200000000000000        1453.00000000150     
  -2.00000000000000       0.240000000000000        1422.76000000151     
  -2.00000000000000       0.280000000000000        1392.84000000153     
  -2.00000000000000       0.320000000000000        1363.24000000155     
  -2.00000000000000       0.360000000000000        1333.96000000159     
  -2.00000000000000       0.400000000000000        1305.00000000163     
  -2.00000000000000       0.440000000000000        1276.36000000168     
  -2.00000000000000       0.480000000000000        1248.04000000173     
  -2.00000000000000       0.520000000000000        1220.04000000178     
  -2.00000000000000       0.560000000000000        1192.36000000183     
  -2.00000000000000       0.600000000000000        1165.00000000188     
  -2.00000000000000       0.640000000000000        1137.96000000194     
  -2.00000000000000       0.680000000000000        1111.24000000199     
  -2.00000000000000       0.720000000000000        1084.84000000204     
  -2.00000000000000       0.760000000000000        1058.76000000209     
  -2.00000000000000       0.800000000000000        1033.00000000214     
  -2.00000000000000       0.840000000000000        1007.56000000220     
  -2.00000000000000       0.880000000000000        982.440000002248     
  -2.00000000000000       0.920000000000000        957.640000002302     
  -2.00000000000000       0.960000000000000        933.160000002360     
  -2.00000000000000        1.00000000000000        909.000000002422     
  -2.00000000000000        1.04000000000000        885.160000002489     
  -2.00000000000000        1.08000000000000        861.640000002563     
  -2.00000000000000        1.12000000000000        838.440000002646     
  -2.00000000000000        1.16000000000000        815.560000002739     
  -2.00000000000000        1.20000000000000        793.000000002841     
  -2.00000000000000        1.24000000000000        770.760000002955     
  -2.00000000000000        1.28000000000000        748.840000003078     
  -2.00000000000000        1.32000000000000        727.240000003212     
  -2.00000000000000        1.36000000000000        705.960000003354     
  -2.00000000000000        1.40000000000000        685.000000003503     
  -2.00000000000000        1.44000000000000        664.360000003655     
  -2.00000000000000        1.48000000000000        644.040000003806     
  -2.00000000000000        1.52000000000000        624.040000003951     
  -2.00000000000000        1.56000000000000        604.360000004084     
  -2.00000000000000        1.60000000000000        585.000000004194     
  -2.00000000000000        1.64000000000000        565.960000004274     
  -2.00000000000000        1.68000000000000        547.240000004312     
  -2.00000000000000        1.72000000000000        528.840000004295     
  -2.00000000000000        1.76000000000000        510.760000004209     
  -2.00000000000000        1.80000000000000        493.000000004038     
  -2.00000000000000        1.84000000000000        475.560000003764     
  -2.00000000000000        1.88000000000000        458.440000003369     
  -2.00000000000000        1.92000000000000        441.640000002832     
  -2.00000000000000        1.96000000000000        425.160000002134     
  -2.00000000000000        2.00000000000000        409.000000001252     
  -1.96000000000000       -2.00000000000000        3421.19065600522     
  -1.96000000000000       -1.96000000000000        3374.61785600525     
  -1.96000000000000       -1.92000000000000        3328.36505600528     
  -1.96000000000000       -1.88000000000000        3282.43225600530     
  -1.96000000000000       -1.84000000000000        3236.81945600531     
  -1.96000000000000       -1.80000000000000        3191.52665600533     
  -1.96000000000000       -1.76000000000000        3146.55385600536     
  -1.96000000000000       -1.72000000000000        3101.90105600540     
  -1.96000000000000       -1.68000000000000        3057.56825600544     
  -1.96000000000000       -1.64000000000000        3013.55545600550     
  -1.96000000000000       -1.60000000000000        2969.86265600556     
  -1.96000000000000       -1.56000000000000        2926.48985600563     
  -1.96000000000000       -1.52000000000000        2883.43705600571     
  -1.96000000000000       -1.48000000000000        2840.70425600579     
  -1.96000000000000       -1.44000000000000        2798.29145600587     
  -1.96000000000000       -1.40000000000000        2756.19865600595     
  -1.96000000000000       -1.36000000000000        2714.42585600602     
  -1.96000000000000       -1.32000000000000        2672.97305600609     
  -1.96000000000000       -1.28000000000000        2631.84025600614     
  -1.96000000000000       -1.24000000000000        2591.02745600618     
  -1.96000000000000       -1.20000000000000        2550.53465600621     
  -1.96000000000000       -1.16000000000000        2510.36185600622     
  -1.96000000000000       -1.12000000000000        2470.50905600621     
  -1.96000000000000       -1.08000000000000        2430.97625600618     
  -1.96000000000000       -1.04000000000000        2391.76345600612     
  -1.96000000000000       -1.00000000000000        2352.87065600605     
  -1.96000000000000      -0.960000000000000        2314.29785600596     
  -1.96000000000000      -0.920000000000000        2276.04505600583     
  -1.96000000000000      -0.880000000000000        2238.11225600570     
  -1.96000000000000      -0.840000000000000        2200.49945600554     
  -1.96000000000000      -0.800000000000000        2163.20665600537     
  -1.96000000000000      -0.760000000000000        2126.23385600518     
  -1.96000000000000      -0.720000000000000        2089.58105600498     
  -1.96000000000000      -0.680000000000000        2053.24825600476     
  -1.96000000000000      -0.640000000000000        2017.23545600453     
  -1.96000000000000      -0.600000000000000        1981.54265600430     
  -1.96000000000000      -0.560000000000000        1946.16985600406     
  -1.96000000000000      -0.520000000000000        1911.11705600382     
  -1.96000000000000      -0.480000000000000        1876.38425600358     
  -1.96000000000000      -0.440000000000000        1841.97145600335     
  -1.96000000000000      -0.400000000000000        1807.87865600311     
  -1.96000000000000      -0.360000000000000        1774.10585600289     
  -1.96000000000000      -0.320000000000000        1740.65305600268     
  -1.96000000000000      -0.280000000000000        1707.52025600248     
  -1.96000000000000      -0.240000000000000        1674.70745600229     
  -1.96000000000000      -0.200000000000000        1642.21465600212     
  -1.96000000000000      -0.160000000000000        1610.04185600196     
  -1.96000000000000      -0.120000000000000        1578.18905600182     
  -1.96000000000000      -8.000000000000007E-002   1546.65625600170     
  -1.96000000000000      -4.000000000000004E-002   1515.44345600159     
  -1.96000000000000       0.000000000000000E+000   1484.55065600151     
  -1.96000000000000       4.000000000000004E-002   1453.97785600144     
  -1.96000000000000       8.000000000000007E-002   1423.72505600138     
  -1.96000000000000       0.120000000000000        1393.79225600135     
  -1.96000000000000       0.160000000000000        1364.17945600133     
  -1.96000000000000       0.200000000000000        1334.88665600132     
  -1.96000000000000       0.240000000000000        1305.91385600133     
  -1.96000000000000       0.280000000000000        1277.26105600135     
  -1.96000000000000       0.320000000000000        1248.92825600138     
  -1.96000000000000       0.360000000000000        1220.91545600141     
  -1.96000000000000       0.400000000000000        1193.22265600146     
  -1.96000000000000       0.440000000000000        1165.84985600151     
  -1.96000000000000       0.480000000000000        1138.79705600156     
  -1.96000000000000       0.520000000000000        1112.06425600161     
  -1.96000000000000       0.560000000000000        1085.65145600167     
  -1.96000000000000       0.600000000000000        1059.55865600173     
  -1.96000000000000       0.640000000000000        1033.78585600179     
  -1.96000000000000       0.680000000000000        1008.33305600184     
  -1.96000000000000       0.720000000000000        983.200256001896     
  -1.96000000000000       0.760000000000000        958.387456001950     
  -1.96000000000000       0.800000000000000        933.894656002002     
  -1.96000000000000       0.840000000000000        909.721856002053     
  -1.96000000000000       0.880000000000000        885.869056002104     
  -1.96000000000000       0.920000000000000        862.336256002157     
  -1.96000000000000       0.960000000000000        839.123456002211     
  -1.96000000000000        1.00000000000000        816.230656002269     
  -1.96000000000000        1.04000000000000        793.657856002331     
  -1.96000000000000        1.08000000000000        771.405056002399     
  -1.96000000000000        1.12000000000000        749.472256002474     
  -1.96000000000000        1.16000000000000        727.859456002557     
  -1.96000000000000        1.20000000000000        706.566656002650     
  -1.96000000000000        1.24000000000000        685.593856002753     
  -1.96000000000000        1.28000000000000        664.941056002868     
  -1.96000000000000        1.32000000000000        644.608256002991     
  -1.96000000000000        1.36000000000000        624.595456003125     
  -1.96000000000000        1.40000000000000        604.902656003266     
  -1.96000000000000        1.44000000000000        585.529856003413     
  -1.96000000000000        1.48000000000000        566.477056003560     
  -1.96000000000000        1.52000000000000        547.744256003706     
  -1.96000000000000        1.56000000000000        529.331456003842     
  -1.96000000000000        1.60000000000000        511.238656003963     
  -1.96000000000000        1.64000000000000        493.465856004059     
  -1.96000000000000        1.68000000000000        476.013056004121     
  -1.96000000000000        1.72000000000000        458.880256004138     
  -1.96000000000000        1.76000000000000        442.067456004096     
  -1.96000000000000        1.80000000000000        425.574656003982     
  -1.96000000000000        1.84000000000000        409.401856003780     
  -1.96000000000000        1.88000000000000        393.549056003473     
  -1.96000000000000        1.92000000000000        378.016256003043     
  -1.96000000000000        1.96000000000000        362.803456002473     
  -1.96000000000000        2.00000000000000        347.910656001742     
  -1.92000000000000       -2.00000000000000        3242.04089600519     
  -1.92000000000000       -1.96000000000000        3196.70969600524     
  -1.92000000000000       -1.92000000000000        3151.69849600527     
  -1.92000000000000       -1.88000000000000        3107.00729600529     
  -1.92000000000000       -1.84000000000000        3062.63609600532     
  -1.92000000000000       -1.80000000000000        3018.58489600535     
  -1.92000000000000       -1.76000000000000        2974.85369600539     
  -1.92000000000000       -1.72000000000000        2931.44249600544     
  -1.92000000000000       -1.68000000000000        2888.35129600549     
  -1.92000000000000       -1.64000000000000        2845.58009600556     
  -1.92000000000000       -1.60000000000000        2803.12889600564     
  -1.92000000000000       -1.56000000000000        2760.99769600572     
  -1.92000000000000       -1.52000000000000        2719.18649600581     
  -1.92000000000000       -1.48000000000000        2677.69529600590     
  -1.92000000000000       -1.44000000000000        2636.52409600599     
  -1.92000000000000       -1.40000000000000        2595.67289600608     
  -1.92000000000000       -1.36000000000000        2555.14169600616     
  -1.92000000000000       -1.32000000000000        2514.93049600623     
  -1.92000000000000       -1.28000000000000        2475.03929600629     
  -1.92000000000000       -1.24000000000000        2435.46809600633     
  -1.92000000000000       -1.20000000000000        2396.21689600636     
  -1.92000000000000       -1.16000000000000        2357.28569600637     
  -1.92000000000000       -1.12000000000000        2318.67449600635     
  -1.92000000000000       -1.08000000000000        2280.38329600632     
  -1.92000000000000       -1.04000000000000        2242.41209600626     
  -1.92000000000000       -1.00000000000000        2204.76089600618     
  -1.92000000000000      -0.960000000000000        2167.42969600608     
  -1.92000000000000      -0.920000000000000        2130.41849600595     
  -1.92000000000000      -0.880000000000000        2093.72729600581     
  -1.92000000000000      -0.840000000000000        2057.35609600564     
  -1.92000000000000      -0.800000000000000        2021.30489600546     
  -1.92000000000000      -0.760000000000000        1985.57369600525     
  -1.92000000000000      -0.720000000000000        1950.16249600504     
  -1.92000000000000      -0.680000000000000        1915.07129600481     
  -1.92000000000000      -0.640000000000000        1880.30009600456     
  -1.92000000000000      -0.600000000000000        1845.84889600432     
  -1.92000000000000      -0.560000000000000        1811.71769600406     
  -1.92000000000000      -0.520000000000000        1777.90649600381     
  -1.92000000000000      -0.480000000000000        1744.41529600355     
  -1.92000000000000      -0.440000000000000        1711.24409600330     
  -1.92000000000000      -0.400000000000000        1678.39289600306     
  -1.92000000000000      -0.360000000000000        1645.86169600282     
  -1.92000000000000      -0.320000000000000        1613.65049600260     
  -1.92000000000000      -0.280000000000000        1581.75929600238     
  -1.92000000000000      -0.240000000000000        1550.18809600218     
  -1.92000000000000      -0.200000000000000        1518.93689600200     
  -1.92000000000000      -0.160000000000000        1488.00569600183     
  -1.92000000000000      -0.120000000000000        1457.39449600168     
  -1.92000000000000      -8.000000000000007E-002   1427.10329600155     
  -1.92000000000000      -4.000000000000004E-002   1397.13209600144     
  -1.92000000000000       0.000000000000000E+000   1367.48089600135     
  -1.92000000000000       4.000000000000004E-002   1338.14969600128     
  -1.92000000000000       8.000000000000007E-002   1309.13849600122     
  -1.92000000000000       0.120000000000000        1280.44729600118     
  -1.92000000000000       0.160000000000000        1252.07609600116     
  -1.92000000000000       0.200000000000000        1224.02489600116     
  -1.92000000000000       0.240000000000000        1196.29369600116     
  -1.92000000000000       0.280000000000000        1168.88249600119     
  -1.92000000000000       0.320000000000000        1141.79129600122     
  -1.92000000000000       0.360000000000000        1115.02009600126     
  -1.92000000000000       0.400000000000000        1088.56889600131     
  -1.92000000000000       0.440000000000000        1062.43769600136     
  -1.92000000000000       0.480000000000000        1036.62649600142     
  -1.92000000000000       0.520000000000000        1011.13529600148     
  -1.92000000000000       0.560000000000000        985.964096001541     
  -1.92000000000000       0.600000000000000        961.112896001603     
  -1.92000000000000       0.640000000000000        936.581696001665     
  -1.92000000000000       0.680000000000000        912.370496001725     
  -1.92000000000000       0.720000000000000        888.479296001784     
  -1.92000000000000       0.760000000000000        864.908096001840     
  -1.92000000000000       0.800000000000000        841.656896001894     
  -1.92000000000000       0.840000000000000        818.725696001947     
  -1.92000000000000       0.880000000000000        796.114496001999     
  -1.92000000000000       0.920000000000000        773.823296002049     
  -1.92000000000000       0.960000000000000        751.852096002101     
  -1.92000000000000        1.00000000000000        730.200896002155     
  -1.92000000000000        1.04000000000000        708.869696002212     
  -1.92000000000000        1.08000000000000        687.858496002273     
  -1.92000000000000        1.12000000000000        667.167296002341     
  -1.92000000000000        1.16000000000000        646.796096002416     
  -1.92000000000000        1.20000000000000        626.744896002499     
  -1.92000000000000        1.24000000000000        607.013696002592     
  -1.92000000000000        1.28000000000000        587.602496002695     
  -1.92000000000000        1.32000000000000        568.511296002808     
  -1.92000000000000        1.36000000000000        549.740096002930     
  -1.92000000000000        1.40000000000000        531.288896003062     
  -1.92000000000000        1.44000000000000        513.157696003199     
  -1.92000000000000        1.48000000000000        495.346496003340     
  -1.92000000000000        1.52000000000000        477.855296003480     
  -1.92000000000000        1.56000000000000        460.684096003616     
  -1.92000000000000        1.60000000000000        443.832896003740     
  -1.92000000000000        1.64000000000000        427.301696003845     
  -1.92000000000000        1.68000000000000        411.090496003922     
  -1.92000000000000        1.72000000000000        395.199296003962     
  -1.92000000000000        1.76000000000000        379.628096003953     
  -1.92000000000000        1.80000000000000        364.376896003882     
  -1.92000000000000        1.84000000000000        349.445696003735     
  -1.92000000000000        1.88000000000000        334.834496003498     
  -1.92000000000000        1.92000000000000        320.543296003154     
  -1.92000000000000        1.96000000000000        306.572096002688     
  -1.92000000000000        2.00000000000000        292.920896002083     
  -1.88000000000000       -2.00000000000000        3071.25273600518     
  -1.88000000000000       -1.96000000000000        3027.13753600523     
  -1.88000000000000       -1.92000000000000        2983.34233600527     
  -1.88000000000000       -1.88000000000000        2939.86713600531     
  -1.88000000000000       -1.84000000000000        2896.71193600534     
  -1.88000000000000       -1.80000000000000        2853.87673600539     
  -1.88000000000000       -1.76000000000000        2811.36153600543     
  -1.88000000000000       -1.72000000000000        2769.16633600549     
  -1.88000000000000       -1.68000000000000        2727.29113600556     
  -1.88000000000000       -1.64000000000000        2685.73593600564     
  -1.88000000000000       -1.60000000000000        2644.50073600573     
  -1.88000000000000       -1.56000000000000        2603.58553600582     
  -1.88000000000000       -1.52000000000000        2562.99033600592     
  -1.88000000000000       -1.48000000000000        2522.71513600601     
  -1.88000000000000       -1.44000000000000        2482.75993600611     
  -1.88000000000000       -1.40000000000000        2443.12473600621     
  -1.88000000000000       -1.36000000000000        2403.80953600629     
  -1.88000000000000       -1.32000000000000        2364.81433600636     
  -1.88000000000000       -1.28000000000000        2326.13913600643     
  -1.88000000000000       -1.24000000000000        2287.78393600647     
  -1.88000000000000       -1.20000000000000        2249.74873600650     
  -1.88000000000000       -1.16000000000000        2212.03353600651     
  -1.88000000000000       -1.12000000000000        2174.63833600649     
  -1.88000000000000       -1.08000000000000        2137.56313600646     
  -1.88000000000000       -1.04000000000000        2100.80793600640     
  -1.88000000000000       -1.00000000000000        2064.37273600631     
  -1.88000000000000      -0.960000000000000        2028.25753600620     
  -1.88000000000000      -0.920000000000000        1992.46233600606     
  -1.88000000000000      -0.880000000000000        1956.98713600591     
  -1.88000000000000      -0.840000000000000        1921.83193600573     
  -1.88000000000000      -0.800000000000000        1886.99673600553     
  -1.88000000000000      -0.760000000000000        1852.48153600532     
  -1.88000000000000      -0.720000000000000        1818.28633600509     
  -1.88000000000000      -0.680000000000000        1784.41113600484     
  -1.88000000000000      -0.640000000000000        1750.85593600459     
  -1.88000000000000      -0.600000000000000        1717.62073600433     
  -1.88000000000000      -0.560000000000000        1684.70553600406     
  -1.88000000000000      -0.520000000000000        1652.11033600379     
  -1.88000000000000      -0.480000000000000        1619.83513600352     
  -1.88000000000000      -0.440000000000000        1587.87993600325     
  -1.88000000000000      -0.400000000000000        1556.24473600300     
  -1.88000000000000      -0.360000000000000        1524.92953600275     
  -1.88000000000000      -0.320000000000000        1493.93433600251     
  -1.88000000000000      -0.280000000000000        1463.25913600228     
  -1.88000000000000      -0.240000000000000        1432.90393600207     
  -1.88000000000000      -0.200000000000000        1402.86873600188     
  -1.88000000000000      -0.160000000000000        1373.15353600171     
  -1.88000000000000      -0.120000000000000        1343.75833600155     
  -1.88000000000000      -8.000000000000007E-002   1314.68313600141     
  -1.88000000000000      -4.000000000000004E-002   1285.92793600130     
  -1.88000000000000       0.000000000000000E+000   1257.49273600120     
  -1.88000000000000       4.000000000000004E-002   1229.37753600112     
  -1.88000000000000       8.000000000000007E-002   1201.58233600107     
  -1.88000000000000       0.120000000000000        1174.10713600103     
  -1.88000000000000       0.160000000000000        1146.95193600101     
  -1.88000000000000       0.200000000000000        1120.11673600100     
  -1.88000000000000       0.240000000000000        1093.60153600101     
  -1.88000000000000       0.280000000000000        1067.40633600104     
  -1.88000000000000       0.320000000000000        1041.53113600107     
  -1.88000000000000       0.360000000000000        1015.97593600112     
  -1.88000000000000       0.400000000000000        990.740736001173     
  -1.88000000000000       0.440000000000000        965.825536001233     
  -1.88000000000000       0.480000000000000        941.230336001297     
  -1.88000000000000       0.520000000000000        916.955136001364     
  -1.88000000000000       0.560000000000000        892.999936001433     
  -1.88000000000000       0.600000000000000        869.364736001501     
  -1.88000000000000       0.640000000000000        846.049536001569     
  -1.88000000000000       0.680000000000000        823.054336001635     
  -1.88000000000000       0.720000000000000        800.379136001698     
  -1.88000000000000       0.760000000000000        778.023936001759     
  -1.88000000000000       0.800000000000000        755.988736001816     
  -1.88000000000000       0.840000000000000        734.273536001871     
  -1.88000000000000       0.880000000000000        712.878336001924     
  -1.88000000000000       0.920000000000000        691.803136001975     
  -1.88000000000000       0.960000000000000        671.047936002025     
  -1.88000000000000        1.00000000000000        650.612736002075     
  -1.88000000000000        1.04000000000000        630.497536002128     
  -1.88000000000000        1.08000000000000        610.702336002184     
  -1.88000000000000        1.12000000000000        591.227136002245     
  -1.88000000000000        1.16000000000000        572.071936002311     
  -1.88000000000000        1.20000000000000        553.236736002384     
  -1.88000000000000        1.24000000000000        534.721536002467     
  -1.88000000000000        1.28000000000000        516.526336002559     
  -1.88000000000000        1.32000000000000        498.651136002659     
  -1.88000000000000        1.36000000000000        481.095936002770     
  -1.88000000000000        1.40000000000000        463.860736002889     
  -1.88000000000000        1.44000000000000        446.945536003015     
  -1.88000000000000        1.48000000000000        430.350336003146     
  -1.88000000000000        1.52000000000000        414.075136003279     
  -1.88000000000000        1.56000000000000        398.119936003409     
  -1.88000000000000        1.60000000000000        382.484736003531     
  -1.88000000000000        1.64000000000000        367.169536003639     
  -1.88000000000000        1.68000000000000        352.174336003724     
  -1.88000000000000        1.72000000000000        337.499136003778     
  -1.88000000000000        1.76000000000000        323.143936003791     
  -1.88000000000000        1.80000000000000        309.108736003751     
  -1.88000000000000        1.84000000000000        295.393536003647     
  -1.88000000000000        1.88000000000000        281.998336003463     
  -1.88000000000000        1.92000000000000        268.923136003188     
  -1.88000000000000        1.96000000000000        256.167936002806     
  -1.88000000000000        2.00000000000000        243.732736002303     
  -1.84000000000000       -2.00000000000000        2908.53433600519     
  -1.84000000000000       -1.96000000000000        2865.60953600525     
  -1.84000000000000       -1.92000000000000        2823.00473600530     
  -1.84000000000000       -1.88000000000000        2780.71993600534     
  -1.84000000000000       -1.84000000000000        2738.75513600539     