 variables= "x","y","f"
 zone i=         132  datapacking=point
  -2.00000000000000       -2.00000000000000       0.111111111111111     
  0.000000000000000E+000  0.000000000000000E+000   1.00000000000000     
  -1.00000000000000        1.00000000000000       0.333333333333333     
   1.00000000000000       -1.00000000000000       0.333333333333333     
  -1.50000000000000       0.500000000000000       0.285714285714286     
  0.500000000000000       -1.50000000000000       0.285714285714286     
 -0.500000000000000      -0.500000000000000       0.666666666666667     
   1.50000000000000        1.50000000000000       0.181818181818182     
  -1.75000000000000        1.75000000000000       0.140350877192982     
  0.250000000000000      -0.250000000000000       0.888888888888889     
 -0.750000000000000       -1.25000000000000       0.320000000000000     
   1.25000000000000       0.750000000000000       0.320000000000000     
  -1.25000000000000      -0.750000000000000       0.320000000000000     
  0.750000000000000        1.25000000000000       0.320000000000000     
 -0.250000000000000       0.250000000000000       0.888888888888889     
   1.75000000000000       -1.75000000000000       0.140350877192982     
  -1.87500000000000       0.125000000000000       0.220689655172414     
  0.125000000000000       -1.87500000000000       0.220689655172414     
 -0.875000000000000      -0.875000000000000       0.395061728395062     
   1.12500000000000        1.12500000000000       0.283185840707965     
  -1.37500000000000       -1.37500000000000       0.209150326797386     
  0.625000000000000       0.625000000000000       0.561403508771930     
 -0.375000000000000        1.62500000000000       0.264462809917355     
   1.62500000000000      -0.375000000000000       0.264462809917355     
  -1.62500000000000      -0.125000000000000       0.273504273504274     
  0.375000000000000        1.87500000000000       0.214765100671141     
 -0.625000000000000       0.875000000000000       0.463768115942029     
   1.37500000000000       -1.12500000000000       0.240601503759398     
  -1.12500000000000        1.37500000000000       0.240601503759398     
  0.875000000000000      -0.625000000000000       0.463768115942029     
 -0.125000000000000       -1.62500000000000       0.273504273504274     
   1.87500000000000       0.375000000000000       0.214765100671141     
  -1.93750000000000        1.18750000000000       0.162230671736375     
  6.250000000000000E-002 -0.812500000000000       0.600938967136150     
 -0.937500000000000       -1.81250000000000       0.193645990922844     
   1.06250000000000       0.187500000000000       0.462093862815884     
  -1.43750000000000      -0.312500000000000       0.316049382716049     
  0.562500000000000        1.68750000000000       0.240150093808630     
 -0.437500000000000       0.687500000000000       0.600938967136150     
   1.56250000000000       -1.31250000000000       0.193645990922844     
  -1.68750000000000       -1.06250000000000       0.200941915227630     
  0.312500000000000       0.937500000000000       0.505928853754941     
 -0.687500000000000        1.93750000000000       0.191330343796712     
   1.31250000000000      -6.250000000000000E-002  0.366762177650430     
  -1.18750000000000       0.437500000000000       0.384384384384384     
  0.812500000000000       -1.56250000000000       0.243809523809524     
 -0.187500000000000      -0.562500000000000       0.739884393063584     
   1.81250000000000        1.43750000000000       0.157441574415744     
  -1.81250000000000      -0.937500000000000       0.193645990922844     
  0.187500000000000        1.06250000000000       0.462093862815884     
 -0.812500000000000       6.250000000000000E-002  0.600938967136150     
   1.18750000000000       -1.93750000000000       0.162230671736375     
  -1.31250000000000        1.56250000000000       0.193645990922844     
  0.687500000000000      -0.437500000000000       0.600938967136150     
 -0.312500000000000       -1.43750000000000       0.316049382716049     
   1.68750000000000       0.562500000000000       0.240150093808630     
  -1.56250000000000       0.812500000000000       0.243809523809524     
  0.437500000000000       -1.18750000000000       0.384384384384384     
 -0.562500000000000      -0.187500000000000       0.739884393063584     
   1.43750000000000        1.81250000000000       0.157441574415744     
  -1.06250000000000       -1.68750000000000       0.200941915227630     
  0.937500000000000       0.312500000000000       0.505928853754941     
 -6.250000000000000E-002   1.31250000000000       0.366762177650430     
   1.93750000000000      -0.687500000000000       0.191330343796712     
  -1.96875000000000       0.656250000000000       0.188443135811557     
  3.125000000000000E-002  -1.34375000000000       0.356297842727905     
 -0.968750000000000      -0.343750000000000       0.486229819563153     
   1.03125000000000        1.65625000000000       0.208045509955303     
  -1.46875000000000       -1.84375000000000       0.152517128388442     
  0.531250000000000       0.156250000000000       0.765321375186846     
 -0.468750000000000        1.15625000000000       0.391138273491215     
   1.53125000000000      -0.843750000000000       0.246509388541165     
  -1.71875000000000      -0.593750000000000       0.232199546485261     
  0.281250000000000        1.40625000000000       0.327156549520767     
 -0.718750000000000       0.406250000000000       0.594657375145180     
   1.28125000000000       -1.59375000000000       0.192989068978515     
  -1.21875000000000        1.90625000000000       0.163421640600064     
  0.781250000000000      -9.375000000000000E-002  0.617611580217129     
 -0.218750000000000       -1.09375000000000       0.445604873803307     
   1.78125000000000       0.906250000000000       0.200234649980446     
  -1.84375000000000       -1.46875000000000       0.152517128388442     
  0.156250000000000       0.531250000000000       0.765321375186846     
 -0.843750000000000        1.53125000000000       0.246509388541165     
   1.15625000000000      -0.468750000000000       0.391138273491215     
  -1.34375000000000       3.125000000000000E-002  0.356297842727905     
  0.656250000000000       -1.96875000000000       0.188443135811557     
 -0.343750000000000      -0.968750000000000       0.486229819563153     
   1.65625000000000        1.03125000000000       0.208045509955303     
  -1.59375000000000        1.28125000000000       0.192989068978515     
  0.406250000000000      -0.718750000000000       0.594657375145180     
 -0.593750000000000       -1.71875000000000       0.232199546485261     
   1.40625000000000       0.281250000000000       0.327156549520767     
  -1.09375000000000      -0.218750000000000       0.445604873803307     
  0.906250000000000        1.78125000000000       0.200234649980446     
 -9.375000000000000E-002  0.781250000000000       0.617611580217129     
   1.90625000000000       -1.21875000000000       0.163421640600064     
  -1.90625000000000      -0.406250000000000       0.208384208384208     
  9.375000000000000E-002   1.59375000000000       0.281783159053385     
 -0.906250000000000       0.593750000000000       0.460017969451932     
   1.09375000000000       -1.40625000000000       0.239588207767899     
  -1.40625000000000        1.09375000000000       0.239588207767899     
  0.593750000000000      -0.906250000000000       0.460017969451932     
 -0.406250000000000       -1.90625000000000       0.208384208384208     
   1.59375000000000       9.375000000000000E-002  0.281783159053385     
  -1.65625000000000       0.343750000000000       0.258978249873546     
  0.343750000000000       -1.65625000000000       0.258978249873546     
 -0.656250000000000      -0.656250000000000       0.537250786988458     
   1.34375000000000        1.34375000000000       0.216857263871241     
  -1.15625000000000       -1.15625000000000       0.272195640616693     
  0.843750000000000       0.843750000000000       0.412570507655117     
 -0.156250000000000        1.84375000000000       0.226048565121413     
   1.84375000000000      -0.156250000000000       0.226048565121413     
  -1.78125000000000        1.71875000000000       0.140312414360099     
  0.218750000000000      -0.281250000000000       0.887348353552860     
 -0.781250000000000       -1.28125000000000       0.307507507507507     
   1.21875000000000       0.718750000000000       0.333116460637606     
  -1.28125000000000      -0.781250000000000       0.307507507507507     
  0.718750000000000        1.21875000000000       0.333116460637606     
 -0.281250000000000       0.218750000000000       0.887348353552860     
   1.71875000000000       -1.78125000000000       0.140312414360099     
  -1.53125000000000       -1.53125000000000       0.175763817370409     
  0.468750000000000       0.468750000000000       0.694708276797829     
 -0.531250000000000        1.46875000000000       0.290743895513913     
   1.46875000000000      -0.531250000000000       0.290743895513913     
  -1.03125000000000       0.968750000000000       0.333116460637606     
  0.968750000000000       -1.03125000000000       0.333116460637606     
 -3.125000000000000E-002 -3.125000000000000E-002  0.998050682261209     
   1.96875000000000        1.96875000000000       0.114260209774604     
  -1.98437500000000        1.98437500000000       0.112669857512241     
  1.562500000000000E-002 -1.562500000000000E-002  0.999511957052221     
 -0.984375000000000       -1.01562500000000       0.333279088689992     
   1.01562500000000       0.984375000000000       0.333279088689992     
