 variables= "x","y","f"
 zone i=          20  datapacking=point
   1.42477179012221        1.62061146232623      -0.995375444387353     
   1.26447662810694       0.366847423884832      -6.049077368164806E-002
   1.68368860621799        1.35465333603452      -0.994674379068583     
  0.379404757755765        1.40861882509422      -0.215522873918583     
  0.905763605040161       0.406593388366984       0.255572026848172     
   1.54390993727787        1.11507831192670      -0.885789256222013     
   1.11931586811821       0.746188654148696      -0.290460638551853     
  0.341795568683366       0.942710384638065       0.282395538819237     
  0.808122942772011       0.758434672028515       4.238699301785442E-003
  0.747299220754502        1.63653279073081      -0.726376933703570     
  0.608003329413832        1.20661382299027      -0.241412195333041     
   1.21195755407778       0.558523069800292      -0.198359911022374     
  0.276838592008814       0.250545415641616       0.864126588087275     
  0.269577999393565       0.558970070022649       0.675946473467785     
  0.482420907893453       0.385714397931883       0.646250665072626     
   1.69135362390892       0.774817869819544      -0.780443700233777     
   1.66902521013694        1.74019927925665      -0.964399857104335     
  0.991549978399990        1.73479045337212      -0.915014598090648     
  0.691468225177336       0.510719611480248       0.360317739589103     
   1.27214202285600        1.20691745865943      -0.788436567997468     
