 variables= "x","y","fpcb"
 zone i=          42  datapacking=point
   150.726662903891        40.0962643898490       0.000000000000000E+000
   150.148425794216        39.4156002769764       0.000000000000000E+000
   149.717323412982        40.2438551776485       0.000000000000000E+000
   149.429602073994        39.3489708445094       0.000000000000000E+000
   150.322057660990        39.9029837577952       0.000000000000000E+000
   149.823108320795        40.6980172889609       0.000000000000000E+000
   149.981547665011        40.3265756299686       0.000000000000000E+000
   150.121605940388        39.6316129504148       0.000000000000000E+000
   150.581040208436        40.3938576277656       0.000000000000000E+000
   149.542783255998        39.8151498733474       0.000000000000000E+000
   150.433183588752        39.5989214071714       0.000000000000000E+000
   149.266576204223        40.5720904172929       0.000000000000000E+000
   150.670089256902        39.2874520065930       0.000000000000000E+000
   149.275311184723        39.6979061502621       0.000000000000000E+000
   150.749010815810        39.5043481057173       0.000000000000000E+000
   150.712997198775        40.6755545029745       0.000000000000000E+000
   149.298491643083        39.9234571660034       0.000000000000000E+000
   149.990673059106        39.2769355136805       0.000000000000000E+000
   149.681417491174        39.6167664708594       0.000000000000000E+000
   150.295431895251        39.2638841307931       0.000000000000000E+000
   150.473345974987        40.7422496258668       0.000000000000000E+000
   149.264236427119        39.2575459869184       0.000000000000000E+000
   149.344755613930        40.7465936154021       0.000000000000000E+000
   150.215372584113        40.7370413365154       0.000000000000000E+000
   149.636815462034        40.7394164956898       0.000000000000000E+000
   150.328696481742        40.4924578280646       0.000000000000000E+000
   150.660455574664        39.9216680905565       0.000000000000000E+000
   150.136912621561        40.4878407732340       0.000000000000000E+000
   149.917534419540        40.5094436027739       0.000000000000000E+000
   150.488879058300        40.0141254500118       0.000000000000000E+000
   149.256096643063        40.1084977679157       0.000000000000000E+000
   149.306507830965        40.2765283459652       0.000000000000000E+000
   149.580472874014        39.4992743134064       0.000000000000000E+000
   149.410191990651        40.0825393577444       0.000000000000000E+000
   149.846994273800        39.6371169911194       0.000000000000000E+000
   149.791047392306        39.4926633113868       0.000000000000000E+000
   149.363476269925        39.4860567915514       0.000000000000000E+000
   150.488472135305        40.5084969009649       0.000000000000000E+000
   149.495808359686        39.6416372514418       0.000000000000000E+000
   149.963992021223        39.5014621515124       0.000000000000000E+000
   149.422460832662        40.3743791064290       0.000000000000000E+000
   150.027921433994        39.7668467597089       0.000000000000000E+000
