 variables= "x","y","fpcb"
 zone i=         132  datapacking=point
  0.000000000000000E+000  0.000000000000000E+000  0.000000000000000E+000
   1.64768335691574        1.74965111017953       0.000000000000000E+000
  -1.03467526648642       0.309872931147789       0.000000000000000E+000
 -0.779570232808658       0.278628627599796       0.000000000000000E+000
  0.450120111901997        1.04874866685781       0.000000000000000E+000
 -0.541202920728062        1.43334771895215       0.000000000000000E+000
  0.613198367374263      -0.717253971404008       0.000000000000000E+000
  0.101296352872708        1.50944917799505       0.000000000000000E+000
  7.558901327690570E-002 -0.397589076048422       0.000000000000000E+000
   1.99706525534450       0.895971386227721       0.000000000000000E+000
  -1.91967324778097       0.972767741459437       0.000000000000000E+000
  0.418136775979502      -0.188752487653280       0.000000000000000E+000
   1.21258015228518        1.19419192834922       0.000000000000000E+000
 -0.409655346427450       -1.12465716475305       0.000000000000000E+000
   1.76228725260665       0.238177051657743       0.000000000000000E+000
 -0.871733220523849       -1.99646071910371       0.000000000000000E+000
 -0.930160982704444       0.385457385901699       0.000000000000000E+000
  0.738562160699222       0.489155082209262       0.000000000000000E+000
 -0.359810911067299        1.29053540743487       0.000000000000000E+000
  -1.32671511312528        1.41790575566567       0.000000000000000E+000
   1.92962805590694        1.67333320818710       0.000000000000000E+000
 -0.252714734905574        1.57382542858992       0.000000000000000E+000
  0.531847394644730        1.60458899899414       0.000000000000000E+000
   1.38511601731359       -1.84063283547141       0.000000000000000E+000
   1.87391064638474       -1.01224896821770       0.000000000000000E+000
  -1.64178145532320        1.11632399895225       0.000000000000000E+000
   1.51037811265897      -0.476900752892851       0.000000000000000E+000
 -0.326968911584467       0.515305695704570       0.000000000000000E+000
  -1.29016110081739       -1.79152342813994       0.000000000000000E+000
 -0.775789370048217        1.52986541183587       0.000000000000000E+000
 -0.707209573442977       0.570114146351471       0.000000000000000E+000
  0.890531214133098      -0.992305624974113       0.000000000000000E+000
 -0.933487100458113       0.151422128840699       0.000000000000000E+000
 -0.293269893441805       5.154552558010117E-003  0.000000000000000E+000
 -0.223740273544111      -0.512473307341859       0.000000000000000E+000
  -1.01346447409402        1.63974947897787       0.000000000000000E+000
  0.534644978846197       -1.61600299669372       0.000000000000000E+000
   1.62548771255531      -4.022801115537544E-002  0.000000000000000E+000
   1.89259562398851       -1.36409188039583       0.000000000000000E+000
   1.46533941091407      -0.215897912523835       0.000000000000000E+000
  0.264822757499383       0.197677353309759       0.000000000000000E+000
 -0.818571191741575      -0.445883201836237       0.000000000000000E+000
 -0.565714238398309      -0.371186977788341       0.000000000000000E+000
  0.376673128565948      -0.799077664078352       0.000000000000000E+000
  -1.68220908549733       -1.48761313300989       0.000000000000000E+000
  -1.89573353037910       -1.88644556004984       0.000000000000000E+000
   1.79586790685889      -0.605031555026435       0.000000000000000E+000
  -1.58091384161572       -1.74244454737119       0.000000000000000E+000
 -0.525806244843104       0.413881657162360       0.000000000000000E+000
  -1.43929752849210        1.84946994453700       0.000000000000000E+000
   1.29895772701110       -1.91284063800035       0.000000000000000E+000
  0.345876655246091        1.54388570083199       0.000000000000000E+000
  -1.47700945501062       -1.56188107690982       0.000000000000000E+000
  0.482242311802588      -0.886404652014589       0.000000000000000E+000
  -1.51835102213012        1.70846398522268       0.000000000000000E+000
  -1.70425487409782      -0.258014090586079       0.000000000000000E+000
   1.71810204880782       0.473210055478949       0.000000000000000E+000
 -0.469552688995784       -1.87310135507944       0.000000000000000E+000
  -1.11555539922041        1.07560151988375       0.000000000000000E+000
  -1.84188474755765        1.97062256852682       0.000000000000000E+000
  0.206406581965316        1.78022678851500       0.000000000000000E+000
  0.159392563748998        1.82888650180887       0.000000000000000E+000
 -0.600631432767939        1.14887102696321       0.000000000000000E+000
 -3.386455408394706E-002  -1.52006967320759       0.000000000000000E+000
 -0.184461241667523      -0.269012847707534       0.000000000000000E+000
   1.56143802392410       -1.17679399725631       0.000000000000000E+000
  0.585051315724076      -0.666788196680490       0.000000000000000E+000
   1.59868476647571      -0.297007850596164       0.000000000000000E+000
  0.697923615508244        1.89897871533044       0.000000000000000E+000
  -1.41764147151597        1.32610827202140       0.000000000000000E+000
  -1.56738733947918      -0.861630889704413       0.000000000000000E+000
   1.13472583593626       0.126888653954211       0.000000000000000E+000
  0.405826888746734      -0.145751752447817       0.000000000000000E+000
 -0.672060964893031      -0.947413294435078       0.000000000000000E+000
  -1.22176671489630       -1.64852200031262       0.000000000000000E+000
  -1.80569633283685       -1.21307603426670       0.000000000000000E+000
 -0.979487353091619      -7.730484603330456E-002  0.000000000000000E+000
  1.559858531740366E-002  0.767987095624005       0.000000000000000E+000
  -1.98724832582891        1.33010853672093       0.000000000000000E+000
   1.20288398796185       0.538756823026837       0.000000000000000E+000
  -1.20515017882519      -0.839266223733257       0.000000000000000E+000
   1.74323456226136        1.23120366972094       0.000000000000000E+000
  -1.60938381310264      -0.595037481640770       0.000000000000000E+000
  -1.06641855031835       -1.34457225669015       0.000000000000000E+000
  0.978233975301095       -1.46255940018985       0.000000000000000E+000
   1.94178167868609       -1.17477027227259       0.000000000000000E+000
 -0.108914106688607       0.735270556595864       0.000000000000000E+000
 -0.412520861141132       -1.39172474325021       0.000000000000000E+000
  0.197001331632884        1.46544632556553       0.000000000000000E+000
 -5.205433483420263E-002 -0.442079489197278       0.000000000000000E+000
   1.82508453943235       0.687582313858260       0.000000000000000E+000
  -1.86521445551209       0.653964283454016       0.000000000000000E+000
   1.26431034173793      -0.913891016932141       0.000000000000000E+000
   1.41658536964405       0.325281490381773       0.000000000000000E+000
  6.893110591397189E-004  -1.42147206542317       0.000000000000000E+000
  0.653953275192742      -0.726805068373081       0.000000000000000E+000
 -0.732494650430623        1.01469678853544       0.000000000000000E+000
   1.42042549352633        1.36770356087141       0.000000000000000E+000
  0.908063590728656      -5.968754082401428E-002  0.000000000000000E+000
   1.67209762727588       0.862035736706773       0.000000000000000E+000
  0.685279648066193       8.195509481696206E-002  0.000000000000000E+000
  -1.77213049847191      -0.321179421606209       0.000000000000000E+000
   1.26836105002466       -1.05490532118111       0.000000000000000E+000
  -1.49552689092501        1.80932037005769       0.000000000000000E+000
 -0.847173319693435      -0.645670190904060       0.000000000000000E+000
  0.764122803126263      -0.114776377535488       0.000000000000000E+000
  0.108135363428829        1.09082736127817       0.000000000000000E+000
  -1.25596975132303       0.619430473880476       0.000000000000000E+000
  -1.35841963660554       -1.69004073672034       0.000000000000000E+000
   1.16330497553402       -1.03374602404527       0.000000000000000E+000
  -1.73785633618654       2.904717101509524E-002  0.000000000000000E+000
 -0.487320133840665       0.684352881251075       0.000000000000000E+000
   1.51890750114495       -1.77578127700829       0.000000000000000E+000
   1.34707403992803       0.947894124790257       0.000000000000000E+000
   1.06728221685664       0.813807272972709       0.000000000000000E+000
  0.957256889791914       7.105059689597848E-002  0.000000000000000E+000
 -8.574332059946177E-002  -1.69994619116567       0.000000000000000E+000
 -0.263561815495910      -0.766627265377178       0.000000000000000E+000
  -1.16434904676576       0.364253106496895       0.000000000000000E+000
  0.800838193332150       -1.29574901870733       0.000000000000000E+000
 -0.648362509433721       0.911128083745899       0.000000000000000E+000
  0.314815405041297       -1.32678502310320       0.000000000000000E+000
 -0.164663021486919        1.91495640047222       0.000000000000000E+000
  -1.96468457049059      -0.549151303339652       0.000000000000000E+000
   1.10367567727146       -1.09740559724769       0.000000000000000E+000
   1.01909265179181        1.94992859999016       0.000000000000000E+000
  -1.08690054790321        1.24387317407066       0.000000000000000E+000
  0.248750957249078       -1.94875422773298       0.000000000000000E+000
  -1.38006607738461       -1.59780167298928       0.000000000000000E+000
  0.832490840225466       0.800717188296221       0.000000000000000E+000
   1.04759749162625       -1.24697964459904       0.000000000000000E+000
  0.864171555332765       0.211586524218843       0.000000000000000E+000
