 variables= "x","y","fPC"
 zone i=         101  j=         101  datapacking=point
  -2.00000000000000       -2.00000000000000       8.830842545846818E-002
  -2.00000000000000       -1.96000000000000       0.103829863803491     
  -2.00000000000000       -1.92000000000000       0.114054924835990     
  -2.00000000000000       -1.88000000000000       0.120501154788115     
  -2.00000000000000       -1.84000000000000       0.124360039799970     
  -2.00000000000000       -1.80000000000000       0.126549877464740     
  -2.00000000000000       -1.76000000000000       0.127762346249031     
  -2.00000000000000       -1.72000000000000       0.128503279872350     
  -2.00000000000000       -1.68000000000000       0.129128133492041     
  -2.00000000000000       -1.64000000000000       0.129872607690581     
  -2.00000000000000       -1.60000000000000       0.130878874918341     
  -2.00000000000000       -1.56000000000000       0.132217831321318     
  -2.00000000000000       -1.52000000000000       0.133907774888262     
  -2.00000000000000       -1.48000000000000       0.135929888690331     
  -2.00000000000000       -1.44000000000000       0.138240885758860     
  -2.00000000000000       -1.40000000000000       0.140783149948136     
  -2.00000000000000       -1.36000000000000       0.143492685052004     
  -2.00000000000000       -1.32000000000000       0.146305162571189     
  -2.00000000000000       -1.28000000000000       0.149160336945256     
  -2.00000000000000       -1.24000000000000       0.152005075845574     
  -2.00000000000000       -1.20000000000000       0.154795232347022     
  -2.00000000000000       -1.16000000000000       0.157496565524197     
  -2.00000000000000       -1.12000000000000       0.160084896316568     
  -2.00000000000000       -1.08000000000000       0.162545666435335     
  -2.00000000000000       -1.04000000000000       0.164873049697296     
  -2.00000000000000       -1.00000000000000       0.167068747517918     
  -2.00000000000000      -0.960000000000000       0.169140583422489     
  -2.00000000000000      -0.920000000000000       0.171100995381579     
  -2.00000000000000      -0.880000000000000       0.172965509581523     
  -2.00000000000000      -0.840000000000000       0.174751264934143     
  -2.00000000000000      -0.800000000000000       0.176475644239498     
  -2.00000000000000      -0.760000000000000       0.178155055464221     
  -2.00000000000000      -0.720000000000000       0.179803895103698     
  -2.00000000000000      -0.680000000000000       0.181433715073048     
  -2.00000000000000      -0.640000000000000       0.183052605028306     
  -2.00000000000000      -0.600000000000000       0.184664793460169     
  -2.00000000000000      -0.560000000000000       0.186270463328013     
  -2.00000000000000      -0.520000000000000       0.187865771407076     
  -2.00000000000000      -0.480000000000000       0.189443054897669     
  -2.00000000000000      -0.440000000000000       0.190991204178328     
  -2.00000000000000      -0.400000000000000       0.192496176856694     
  -2.00000000000000      -0.360000000000000       0.193941625459992     
  -2.00000000000000      -0.320000000000000       0.195309609183792     
  -2.00000000000000      -0.280000000000000       0.196581359051515     
  -2.00000000000000      -0.240000000000000       0.197738065591524     
  -2.00000000000000      -0.200000000000000       0.198761658672486     
  -2.00000000000000      -0.160000000000000       0.199635550405741     
  -2.00000000000000      -0.120000000000000       0.200345313975342     
  -2.00000000000000      -8.000000000000007E-002  0.200879273837907     
  -2.00000000000000      -4.000000000000004E-002  0.201228985886020     
  -2.00000000000000       0.000000000000000E+000  0.201389589827136     
  -2.00000000000000       4.000000000000004E-002  0.201360020126410     
  -2.00000000000000       8.000000000000007E-002  0.201143066323854     
  -2.00000000000000       0.120000000000000       0.200745278286222     
  -2.00000000000000       0.160000000000000       0.200176716910427     
  -2.00000000000000       0.200000000000000       0.199450555871202     
  -2.00000000000000       0.240000000000000       0.198582545110600     
  -2.00000000000000       0.280000000000000       0.197590351804892     
  -2.00000000000000       0.320000000000000       0.196492799415461     
  -2.00000000000000       0.360000000000000       0.195309030029806     
  -2.00000000000000       0.400000000000000       0.194057619417560     
  -2.00000000000000       0.440000000000000       0.192755677950526     
  -2.00000000000000       0.480000000000000       0.191417973647177     
  -2.00000000000000       0.520000000000000       0.190056115977730     
  -2.00000000000000       0.560000000000000       0.188677840578490     
  -2.00000000000000       0.600000000000000       0.187286435541685     
  -2.00000000000000       0.640000000000000       0.185880349333038     
  -2.00000000000000       0.680000000000000       0.184453018502680     
  -2.00000000000000       0.720000000000000       0.182992950050215     
  -2.00000000000000       0.760000000000000       0.181484088431496     
  -2.00000000000000       0.800000000000000       0.179906490598568     
  -2.00000000000000       0.840000000000000       0.178237323985463     
  -2.00000000000000       0.880000000000000       0.176452191828056     
  -2.00000000000000       0.920000000000000       0.174526777466873     
  -2.00000000000000       0.960000000000000       0.172438784155306     
  -2.00000000000000        1.00000000000000       0.170170129204287     
  -2.00000000000000        1.04000000000000       0.167709330856266     
  -2.00000000000000        1.08000000000000       0.165054002909860     
  -2.00000000000000        1.12000000000000       0.162213345620345     
  -2.00000000000000        1.16000000000000       0.159210491585138     
  -2.00000000000000        1.20000000000000       0.156084531986736     
  -2.00000000000000        1.24000000000000       0.152892011504158     
  -2.00000000000000        1.28000000000000       0.149707639207754     
  -2.00000000000000        1.32000000000000       0.146623917608194     
  -2.00000000000000        1.36000000000000       0.143749342519481     
  -2.00000000000000        1.40000000000000       0.141204772295456     
  -2.00000000000000        1.44000000000000       0.139117506081674     
  -2.00000000000000        1.48000000000000       0.137612546757935     
  -2.00000000000000        1.52000000000000       0.136800454994351     
  -2.00000000000000        1.56000000000000       0.136761126064454     
  -2.00000000000000        1.60000000000000       0.137522740507182     
  -2.00000000000000        1.64000000000000       0.139035053154714     
  -2.00000000000000        1.68000000000000       0.141136092190926     
  -2.00000000000000        1.72000000000000       0.143511240515888     
  -2.00000000000000        1.76000000000000       0.145643565501752     
  -2.00000000000000        1.80000000000000       0.146754149965746     
  -2.00000000000000        1.84000000000000       0.145731056584392     
  -2.00000000000000        1.88000000000000       0.141045429751223     
  -2.00000000000000        1.92000000000000       0.130653102756752     
  -2.00000000000000        1.96000000000000       0.111879933857198     
  -2.00000000000000        2.00000000000000       8.128894200639336E-002
  -1.96000000000000       -2.00000000000000       0.103075796820081     
  -1.96000000000000       -1.96000000000000       0.115902471118961     
  -1.96000000000000       -1.92000000000000       0.123909669426943     
  -1.96000000000000       -1.88000000000000       0.128553818439528     
  -1.96000000000000       -1.84000000000000       0.130971588253798     
  -1.96000000000000       -1.80000000000000       0.132032182071034     
  -1.96000000000000       -1.76000000000000       0.132383376616690     
  -1.96000000000000       -1.72000000000000       0.132491815601819     
  -1.96000000000000       -1.68000000000000       0.132678038689585     
  -1.96000000000000       -1.64000000000000       0.133146707936094     
  -1.96000000000000       -1.60000000000000       0.134012472666031     
  -1.96000000000000       -1.56000000000000       0.135321892333993     
  -1.96000000000000       -1.52000000000000       0.137071815222582     
  -1.96000000000000       -1.48000000000000       0.139224588942856     
  -1.96000000000000       -1.44000000000000       0.141720456732754     
  -1.96000000000000       -1.40000000000000       0.144487471590658     
  -1.96000000000000       -1.36000000000000       0.147449238425667     
  -1.96000000000000       -1.32000000000000       0.150530772741036     
  -1.96000000000000       -1.28000000000000       0.153662742974443     
  -1.96000000000000       -1.24000000000000       0.156784342576740     
  -1.96000000000000       -1.20000000000000       0.159845017292787     
  -1.96000000000000       -1.16000000000000       0.162805252982657     
  -1.96000000000000       -1.12000000000000       0.165636609753498     
  -1.96000000000000       -1.08000000000000       0.168321169221098     
  -1.96000000000000       -1.04000000000000       0.170850543441074     
  -1.96000000000000       -1.00000000000000       0.173224576493315     
  -1.96000000000000      -0.960000000000000       0.175449852915755     
  -1.96000000000000      -0.920000000000000       0.177538111206479     
  -1.96000000000000      -0.880000000000000       0.179504645483450     
  -1.96000000000000      -0.840000000000000       0.181366764141334     
  -1.96000000000000      -0.800000000000000       0.183142361002805     
  -1.96000000000000      -0.760000000000000       0.184848642050734     
  -1.96000000000000      -0.720000000000000       0.186501039366670     
  -1.96000000000000      -0.680000000000000       0.188112333404094     
  -1.96000000000000      -0.640000000000000       0.189691995201953     
  -1.96000000000000      -0.600000000000000       0.191245751600015     
  -1.96000000000000      -0.560000000000000       0.192775368953235     
  -1.96000000000000      -0.520000000000000       0.194278644253675     
  -1.96000000000000      -0.480000000000000       0.195749586947084     
  -1.96000000000000      -0.440000000000000       0.197178770063904     
  -1.96000000000000      -0.400000000000000       0.198553825553738     
  -1.96000000000000      -0.360000000000000       0.199860055895954     
  -1.96000000000000      -0.320000000000000       0.201081132130484     
  -1.96000000000000      -0.280000000000000       0.202199847380682     
  -1.96000000000000      -0.240000000000000       0.203198894688661     
  -1.96000000000000      -0.200000000000000       0.204061638512330     
  -1.96000000000000      -0.160000000000000       0.204772850497682     
  -1.96000000000000      -0.120000000000000       0.205319382090118     
  -1.96000000000000      -8.000000000000007E-002  0.205690749130917     
  -1.96000000000000      -4.000000000000004E-002  0.205879606740683     
  -1.96000000000000       0.000000000000000E+000  0.205882096457720     
  -1.96000000000000       4.000000000000004E-002  0.205698051708103     
  -1.96000000000000       8.000000000000007E-002  0.205331052163640     
  -1.96000000000000       0.120000000000000       0.204788322316988     
  -1.96000000000000       0.160000000000000       0.204080474588948     
  -1.96000000000000       0.200000000000000       0.203221102395227     
  -1.96000000000000       0.240000000000000       0.202226233748513     
  -1.96000000000000       0.280000000000000       0.201113661061737     
  -1.96000000000000       0.320000000000000       0.199902167749989     
  -1.96000000000000       0.360000000000000       0.198610676898248     
  -1.96000000000000       0.400000000000000       0.197257351560708     
  -1.96000000000000       0.440000000000000       0.195858680072408     
  -1.96000000000000       0.480000000000000       0.194428582966963     
  -1.96000000000000       0.520000000000000       0.192977580583582     
  -1.96000000000000       0.560000000000000       0.191512062085209     
  -1.96000000000000       0.600000000000000       0.190033697266287     
  -1.96000000000000       0.640000000000000       0.188539032067451     
  -1.96000000000000       0.680000000000000       0.187019306994927     
  -1.96000000000000       0.720000000000000       0.185460534519577     
  -1.96000000000000       0.760000000000000       0.183843866854834     
  -1.96000000000000       0.800000000000000       0.182146279130174     
  -1.96000000000000       0.840000000000000       0.180341584728547     
  -1.96000000000000       0.880000000000000       0.178401789279263     
  -1.96000000000000       0.920000000000000       0.176298777324347     
  -1.96000000000000       0.960000000000000       0.174006310834171     
  -1.96000000000000        1.00000000000000       0.171502301360258     
  -1.96000000000000        1.04000000000000       0.168771297498343     
  -1.96000000000000        1.08000000000000       0.165807106306896     
  -1.96000000000000        1.12000000000000       0.162615441195119     
  -1.96000000000000        1.16000000000000       0.159216459364650     
  -1.96000000000000        1.20000000000000       0.155647018961498     
  -1.96000000000000        1.24000000000000       0.151962449464713     
  -1.96000000000000        1.28000000000000       0.148237588297508     
  -1.96000000000000        1.32000000000000       0.144566791981543     
  -1.96000000000000        1.36000000000000       0.141062581148332     
  -1.96000000000000        1.40000000000000       0.137852525150531     
  -1.96000000000000        1.44000000000000       0.135073913653805     
  -1.96000000000000        1.48000000000000       0.132865699205193     
  -1.96000000000000        1.52000000000000       0.131357126130529     
  -1.96000000000000        1.56000000000000       0.130652386971348     
  -1.96000000000000        1.60000000000000       0.130810567785018     
  -1.96000000000000        1.64000000000000       0.131820057751666     
  -1.96000000000000        1.68000000000000       0.133566506403284     
  -1.96000000000000        1.72000000000000       0.135793313155328     
  -1.96000000000000        1.76000000000000       0.138053528416340     
  -1.96000000000000        1.80000000000000       0.139651933108373     
  -1.96000000000000        1.84000000000000       0.139575943677957     
  -1.96000000000000        1.88000000000000       0.136413862337475     
  -1.96000000000000        1.92000000000000       0.128258857068027     
  -1.96000000000000        1.96000000000000       0.112596912551552     
  -1.96000000000000        2.00000000000000       8.617684139155374E-002
  -1.92000000000000       -2.00000000000000       0.112932605034918     
  -1.92000000000000       -1.96000000000000       0.123718717128886     
  -1.92000000000000       -1.92000000000000       0.130087560410508     
  -1.92000000000000       -1.88000000000000       0.133440649078039     
  -1.92000000000000       -1.84000000000000       0.134865797827194     
  -1.92000000000000       -1.80000000000000       0.135188819023194     
  -1.92000000000000       -1.76000000000000       0.135019025688075     
  -1.92000000000000       -1.72000000000000       0.134789037711227     
  -1.92000000000000       -1.68000000000000       0.134789369213478     
  -1.92000000000000       -1.64000000000000       0.135198254862262     
  -1.92000000000000       -1.60000000000000       0.136107152266997     
  -1.92000000000000       -1.56000000000000       0.137542336494608     
  -1.92000000000000       -1.52000000000000       0.139482981345721     
  -1.92000000000000       -1.48000000000000       0.141876100428159     
  -1.92000000000000       -1.44000000000000       0.144648699357394     
  -1.92000000000000       -1.40000000000000       0.147717468700275     
  -1.92000000000000       -1.36000000000000       0.150996325650908     
  -1.92000000000000       -1.32000000000000       0.154402090973653     
  -1.92000000000000       -1.28000000000000       0.157858566550840     
  -1.92000000000000       -1.24000000000000       0.161299258010846     
  -1.92000000000000       -1.20000000000000       0.164668966459287     
  -1.92000000000000       -1.16000000000000       0.167924453361928     
  -1.92000000000000       -1.12000000000000       0.171034363197425     
  -1.92000000000000       -1.08000000000000       0.173978569671441     
  -1.92000000000000       -1.04000000000000       0.176747093116932     
  -1.92000000000000       -1.00000000000000       0.179338719249704     
  -1.92000000000000      -0.960000000000000       0.181759432750456     
  -1.92000000000000      -0.920000000000000       0.184020763246530     
  -1.92000000000000      -0.880000000000000       0.186138126206212     
  -1.92000000000000      -0.840000000000000       0.188129227068656     
  -1.92000000000000      -0.800000000000000       0.190012583641902     
  -1.92000000000000      -0.760000000000000       0.191806209433946     
  -1.92000000000000      -0.720000000000000       0.193526489156867     
  -1.92000000000000      -0.680000000000000       0.195187267176500     
  -1.92000000000000      -0.640000000000000       0.196799160180239     
  -1.92000000000000      -0.600000000000000       0.198369096809336     
  -1.92000000000000      -0.560000000000000       0.199900079450347     
  -1.92000000000000      -0.520000000000000       0.201391156800188     
  -1.92000000000000      -0.480000000000000       0.202837590202542     
  -1.92000000000000      -0.440000000000000       0.204231192087686     
  -1.92000000000000      -0.400000000000000       0.205560811116253     
  -1.92000000000000      -0.360000000000000       0.206812935808445     
  -1.92000000000000      -0.320000000000000       0.207972386507701     
  -1.92000000000000      -0.280000000000000       0.209023064451197     
  -1.92000000000000      -0.240000000000000       0.209948726463513     
  -1.92000000000000      -0.200000000000000       0.210733754314864     
  -1.92000000000000      -0.160000000000000       0.211363889046850     
  -1.92000000000000      -0.120000000000000       0.211826902518226     
  -1.92000000000000      -8.000000000000007E-002  0.212113181007113     
  -1.92000000000000      -4.000000000000004E-002  0.212216198866570     
  -1.92000000000000       0.000000000000000E+000  0.212132863904987     
  -1.92000000000000       4.000000000000004E-002  0.211863720284355     
  -1.92000000000000       8.000000000000007E-002  0.211412999226484     
  -1.92000000000000       0.120000000000000       0.210788512613611     
  -1.92000000000000       0.160000000000000       0.210001389584874     
  -1.92000000000000       0.200000000000000       0.209065661378533     
  -1.92000000000000       0.240000000000000       0.207997704861955     
  -1.92000000000000       0.280000000000000       0.206815560332759     
  -1.92000000000000       0.320000000000000       0.205538144166407     
  -1.92000000000000       0.360000000000000       0.204184381624386     
  -1.92000000000000       0.400000000000000       0.202772289515101     
  -1.92000000000000       0.440000000000000       0.201318042304022     
  -1.92000000000000       0.480000000000000       0.199835058583533     
  -1.92000000000000       0.520000000000000       0.198333147414688     
  -1.92000000000000       0.560000000000000       0.196817755816449     
  -1.92000000000000       0.600000000000000       0.195289359472231     
  -1.92000000000000       0.640000000000000       0.193743038413640     
  -1.92000000000000       0.680000000000000       0.192168277886950     
  -1.92000000000000       0.720000000000000       0.190549031665200     
  -1.92000000000000       0.760000000000000       0.188864080588498     
  -1.92000000000000       0.800000000000000       0.187087712943974     
  -1.92000000000000       0.840000000000000       0.185190745276662     
  -1.92000000000000       0.880000000000000       0.183141892190948     
  -1.92000000000000       0.920000000000000       0.180909481491836     
  -1.92000000000000       0.960000000000000       0.178463496454664     
  -1.92000000000000        1.00000000000000       0.175777909924643     
  -1.92000000000000        1.04000000000000       0.172833255153077     
  -1.92000000000000        1.08000000000000       0.169619355589901     
  -1.92000000000000        1.12000000000000       0.166138110082470     
  -1.92000000000000        1.16000000000000       0.162406200883920     
  -1.92000000000000        1.20000000000000       0.158457559351781     
  -1.92000000000000        1.24000000000000       0.154345388015647     
  -1.92000000000000        1.28000000000000       0.150143497603095     
  -1.92000000000000        1.32000000000000       0.145946673423548     
  -1.92000000000000        1.36000000000000       0.141869737002812     
  -1.92000000000000        1.40000000000000       0.138044915815131     
  -1.92000000000000        1.44000000000000       0.134617076148411     
  -1.92000000000000        1.48000000000000       0.131736311330988     
  -1.92000000000000        1.52000000000000       0.129547309509572     
  -1.92000000000000        1.56000000000000       0.128174851657833     
  -1.92000000000000        1.60000000000000       0.127704711269122     
  -1.92000000000000        1.64000000000000       0.128159141995978     
  -1.92000000000000        1.68000000000000       0.129466048089720     
  -1.92000000000000        1.72000000000000       0.131420834607610     
  -1.92000000000000        1.76000000000000       0.133639829729956     
  -1.92000000000000        1.80000000000000       0.135504059897983     
  -1.92000000000000        1.84000000000000       0.136092039573612     
  -1.92000000000000        1.88000000000000       0.134100110957977     
  -1.92000000000000        1.92000000000000       0.127748734705803     
  -1.92000000000000        1.96000000000000       0.114672990252439     
  -1.92000000000000        2.00000000000000       9.179539353890909E-002
  -1.88000000000000       -2.00000000000000       0.119077941107508     
  -1.88000000000000       -1.96000000000000       0.128368913400437     
  -1.88000000000000       -1.92000000000000       0.133578149468984     
  -1.88000000000000       -1.88000000000000       0.136057900858125     
  -1.88000000000000       -1.84000000000000       0.136852554674314     
  -1.88000000000000       -1.80000000000000       0.136749727361154     
  -1.88000000000000       -1.76000000000000       0.136325221593382     
  -1.88000000000000       -1.72000000000000       0.135982338627260     
  -1.88000000000000       -1.68000000000000       0.135986019356862     
  -1.88000000000000       -1.64000000000000       0.136492267560419     
  -1.88000000000000       -1.60000000000000       0.137573288499010     
  -1.88000000000000       -1.56000000000000       0.139238755266371     
  -1.88000000000000       -1.52000000000000       0.141453594195671     
  -1.88000000000000       -1.48000000000000       0.144152659311908     
  -1.88000000000000       -1.44000000000000       0.147252644380114     
  -1.88000000000000       -1.40000000000000       0.150661559636552     
  -1.88000000000000       -1.36000000000000       0.154286078895687     
  -1.88000000000000       -1.32000000000000       0.158037041488109     
  -1.88000000000000       -1.28000000000000       0.161833372487392     
  -1.88000000000000       -1.24000000000000       0.165604664006622     
  -1.88000000000000       -1.20000000000000       0.169292640062032     
  -1.88000000000000       -1.16000000000000       0.172851707682805     
  -1.88000000000000       -1.12000000000000       0.176248777657105     
  -1.88000000000000       -1.08000000000000       0.179462519606868     
  -1.88000000000000       -1.04000000000000       0.182482198033315     
  -1.88000000000000       -1.00000000000000       0.185306218623993     
  -1.88000000000000      -0.960000000000000       0.187940497507630     
  -1.88000000000000      -0.920000000000000       0.190396750327725     
  -1.88000000000000      -0.880000000000000       0.192690783018242     
  -1.88000000000000      -0.840000000000000       0.194840852038322     
  -1.88000000000000      -0.800000000000000       0.196866148587014     
  -1.88000000000000      -0.760000000000000       0.198785448997968     
  -1.88000000000000      -0.720000000000000       0.200615962128145     
  -1.88000000000000      -0.680000000000000       0.202372394119083     
  -1.88000000000000      -0.640000000000000       0.204066241435280     
  -1.88000000000000      -0.600000000000000       0.205705314578034     
  -1.88000000000000      -0.560000000000000       0.207293487336599     
  -1.88000000000000      -0.520000000000000       0.208830659868852     
  -1.88000000000000      -0.480000000000000       0.210312918293857     
  -1.88000000000000      -0.440000000000000       0.211732868816590     
  -1.88000000000000      -0.400000000000000       0.213080120674582     
  -1.88000000000000      -0.360000000000000       0.214341889376300     
  -1.88000000000000      -0.320000000000000       0.215503689766200     
  -1.88000000000000      -0.280000000000000       0.216550087371743     
  -1.88000000000000      -0.240000000000000       0.217465476228366     
  -1.88000000000000      -0.200000000000000       0.218234851900790     
  -1.88000000000000      -0.160000000000000       0.218844549678951     
  -1.88000000000000      -0.120000000000000       0.219282919876448     
  -1.88000000000000      -8.000000000000007E-002  0.219540914745809     
  -1.88000000000000      -4.000000000000004E-002  0.219612564690637     
  -1.88000000000000       0.000000000000000E+000  0.219495325138230     
  -1.88000000000000       4.000000000000004E-002  0.219190279570892     
  -1.88000000000000       8.000000000000007E-002  0.218702188729060     
  -1.88000000000000       0.120000000000000       0.218039380819046     
  -1.88000000000000       0.160000000000000       0.217213482602443     
  -1.88000000000000       0.200000000000000       0.216238996428661     
  -1.88000000000000       0.240000000000000       0.215132733507296     
  -1.88000000000000       0.280000000000000       0.213913118909484     
  -1.88000000000000       0.320000000000000       0.212599388838781     
  -1.88000000000000       0.360000000000000       0.211210705519601     
  -1.88000000000000       0.400000000000000       0.209765219507463     
  -1.88000000000000       0.440000000000000       0.208279113218442     
  -1.88000000000000       0.480000000000000       0.206765662888648     
  -1.88000000000000       0.520000000000000       0.205234358887442     
  -1.88000000000000       0.560000000000000       0.203690126194765     
  -1.88000000000000       0.600000000000000       0.202132687783346     
  -1.88000000000000       0.640000000000000       0.200556113485948     
  -1.88000000000000       0.680000000000000       0.198948595537161     
  -1.88000000000000       0.720000000000000       0.197292489214509     
  -1.88000000000000       0.760000000000000       0.195564652716863     
  -1.88000000000000       0.800000000000000       0.193737114456128     
  -1.88000000000000       0.840000000000000       0.191778088143771     
  -1.88000000000000       0.880000000000000       0.189653346264852     
  -1.88000000000000       0.920000000000000       0.187327950582363     
  -1.88000000000000       0.960000000000000       0.184768324032856     
  -1.88000000000000        1.00000000000000       0.181944631584807     
  -1.88000000000000        1.04000000000000       0.178833418153979     
  -1.88000000000000        1.08000000000000       0.175420429320251     
  -1.88000000000000        1.12000000000000       0.171703515178935     
  -1.88000000000000        1.16000000000000       0.167695488992606     
  -1.88000000000000        1.20000000000000       0.163426780188499     
  -1.88000000000000        1.24000000000000       0.158947685468864     
  -1.88000000000000        1.28000000000000       0.154329982159663     
  -1.88000000000000        1.32000000000000       0.149667624204732     
  -1.88000000000000        1.36000000000000       0.145076193201508     
  -1.88000000000000        1.40000000000000       0.140690724349390     
  -1.88000000000000        1.44000000000000       0.136661469917254     
  -1.88000000000000        1.48000000000000       0.133147100602313     
  -1.88000000000000        1.52000000000000       0.130304777713562     
  -1.88000000000000        1.56000000000000       0.128276456230413     
  -1.88000000000000        1.60000000000000       0.127170700216613     
  -1.88000000000000        1.64000000000000       0.127039207563111     
  -1.88000000000000        1.68000000000000       0.127847150337870     
  -1.88000000000000        1.72000000000000       0.129436339878637     
  -1.88000000000000        1.76000000000000       0.131480121913810     
  -1.88000000000000        1.80000000000000       0.133428796170756     
  -1.88000000000000        1.84000000000000       0.134444236858511     
  -1.88000000000000        1.88000000000000       0.133322264817595     
  -1.88000000000000        1.92000000000000       0.128401188732847     
  -1.88000000000000        1.96000000000000       0.117454791321557     
  -1.88000000000000        2.00000000000000       9.756788654882370E-002
  -1.84000000000000       -2.00000000000000       0.122544593451667     
  -1.84000000000000       -1.96000000000000       0.130791370596417     
  -1.84000000000000       -1.92000000000000       0.135232739715325     
  -1.84000000000000       -1.88000000000000       0.137176810205145     
  -1.84000000000000       -1.84000000000000       0.137629463259008     