 variables= "x","y","fPC"
 zone i=         101  j=         101  datapacking=point
  -2.00000000000000       -2.00000000000000        3608.99999734264     
  -2.00000000000000       -1.96000000000000        3561.15999756351     
  -2.00000000000000       -1.92000000000000        3513.63999769676     
  -2.00000000000000       -1.88000000000000        3466.43999777267     
  -2.00000000000000       -1.84000000000000        3419.55999781371     
  -2.00000000000000       -1.80000000000000        3372.99999783642     
  -2.00000000000000       -1.76000000000000        3326.75999785281     
  -2.00000000000000       -1.72000000000000        3280.83999787132     
  -2.00000000000000       -1.68000000000000        3235.23999789755     
  -2.00000000000000       -1.64000000000000        3189.95999793485     
  -2.00000000000000       -1.60000000000000        3144.99999798471     
  -2.00000000000000       -1.56000000000000        3100.35999804720     
  -2.00000000000000       -1.52000000000000        3056.03999812122     
  -2.00000000000000       -1.48000000000000        3012.03999820483     
  -2.00000000000000       -1.44000000000000        2968.35999829549     
  -2.00000000000000       -1.40000000000000        2924.99999839031     
  -2.00000000000000       -1.36000000000000        2881.95999848625     
  -2.00000000000000       -1.32000000000000        2839.23999858030     
  -2.00000000000000       -1.28000000000000        2796.83999866966     
  -2.00000000000000       -1.24000000000000        2754.75999875186     
  -2.00000000000000       -1.20000000000000        2712.99999882485     
  -2.00000000000000       -1.16000000000000        2671.55999888707     
  -2.00000000000000       -1.12000000000000        2630.43999893751     
  -2.00000000000000       -1.08000000000000        2589.63999897568     
  -2.00000000000000       -1.04000000000000        2549.15999900162     
  -2.00000000000000       -1.00000000000000        2508.99999901581     
  -2.00000000000000      -0.960000000000000        2469.15999901919     
  -2.00000000000000      -0.920000000000000        2429.63999901300     
  -2.00000000000000      -0.880000000000000        2390.43999899875     
  -2.00000000000000      -0.840000000000000        2351.55999897810     
  -2.00000000000000      -0.800000000000000        2312.99999895277     
  -2.00000000000000      -0.760000000000000        2274.75999892448     
  -2.00000000000000      -0.720000000000000        2236.83999889484     
  -2.00000000000000      -0.680000000000000        2199.23999886528     
  -2.00000000000000      -0.640000000000000        2161.95999883701     
  -2.00000000000000      -0.600000000000000        2124.99999881100     
  -2.00000000000000      -0.560000000000000        2088.35999878789     
  -2.00000000000000      -0.520000000000000        2052.03999876804     
  -2.00000000000000      -0.480000000000000        2016.03999875150     
  -2.00000000000000      -0.440000000000000        1980.35999873806     
  -2.00000000000000      -0.400000000000000        1944.99999872725     
  -2.00000000000000      -0.360000000000000        1909.95999871840     
  -2.00000000000000      -0.320000000000000        1875.23999871068     
  -2.00000000000000      -0.280000000000000        1840.83999870321     
  -2.00000000000000      -0.240000000000000        1806.75999869501     
  -2.00000000000000      -0.200000000000000        1772.99999868516     
  -2.00000000000000      -0.160000000000000        1739.55999867283     
  -2.00000000000000      -0.120000000000000        1706.43999865730     
  -2.00000000000000      -8.000000000000007E-002   1673.63999863804     
  -2.00000000000000      -4.000000000000004E-002   1641.15999861473     
  -2.00000000000000       0.000000000000000E+000   1608.99999858728     
  -2.00000000000000       4.000000000000004E-002   1577.15999855586     
  -2.00000000000000       8.000000000000007E-002   1545.63999852089     
  -2.00000000000000       0.120000000000000        1514.43999848302     
  -2.00000000000000       0.160000000000000        1483.55999844315     
  -2.00000000000000       0.200000000000000        1452.99999840233     
  -2.00000000000000       0.240000000000000        1422.75999836178     
  -2.00000000000000       0.280000000000000        1392.83999832282     
  -2.00000000000000       0.320000000000000        1363.23999828682     
  -2.00000000000000       0.360000000000000        1333.95999825512     
  -2.00000000000000       0.400000000000000        1304.99999822902     
  -2.00000000000000       0.440000000000000        1276.35999820966     
  -2.00000000000000       0.480000000000000        1248.03999819806     
  -2.00000000000000       0.520000000000000        1220.03999819498     
  -2.00000000000000       0.560000000000000        1192.35999820095     
  -2.00000000000000       0.600000000000000        1164.99999821621     
  -2.00000000000000       0.640000000000000        1137.95999824071     
  -2.00000000000000       0.680000000000000        1111.23999827412     
  -2.00000000000000       0.720000000000000        1084.83999831581     
  -2.00000000000000       0.760000000000000        1058.75999836489     
  -2.00000000000000       0.800000000000000        1032.99999842025     
  -2.00000000000000       0.840000000000000        1007.55999848058     
  -2.00000000000000       0.880000000000000        982.439998544456     
  -2.00000000000000       0.920000000000000        957.639998610369     
  -2.00000000000000       0.960000000000000        933.159998676803     
  -2.00000000000000        1.00000000000000        908.999998742290     
  -2.00000000000000        1.04000000000000        885.159998805465     
  -2.00000000000000        1.08000000000000        861.639998865123     
  -2.00000000000000        1.12000000000000        838.439998920254     
  -2.00000000000000        1.16000000000000        815.559998970075     
  -2.00000000000000        1.20000000000000        792.999999014034     
  -2.00000000000000        1.24000000000000        770.759999051803     
  -2.00000000000000        1.28000000000000        748.839999083255     
  -2.00000000000000        1.32000000000000        727.239999108398     
  -2.00000000000000        1.36000000000000        705.959999127316     
  -2.00000000000000        1.40000000000000        684.999999140062     
  -2.00000000000000        1.44000000000000        664.359999146564     
  -2.00000000000000        1.48000000000000        644.039999146478     
  -2.00000000000000        1.52000000000000        624.039999139073     
  -2.00000000000000        1.56000000000000        604.359999123086     
  -2.00000000000000        1.60000000000000        584.999999096600     
  -2.00000000000000        1.64000000000000        565.959999056932     
  -2.00000000000000        1.68000000000000        547.239999000560     
  -2.00000000000000        1.72000000000000        528.839998923085     
  -2.00000000000000        1.76000000000000        510.759998819250     
  -2.00000000000000        1.80000000000000        492.999998683048     
  -2.00000000000000        1.84000000000000        475.559998507900     
  -2.00000000000000        1.88000000000000        458.439998286959     
  -2.00000000000000        1.92000000000000        441.639998013523     
  -2.00000000000000        1.96000000000000        425.159997681602     
  -2.00000000000000        2.00000000000000        408.999997286641     
  -1.96000000000000       -2.00000000000000        3421.19065361589     
  -1.96000000000000       -1.96000000000000        3374.61785384356     
  -1.96000000000000       -1.92000000000000        3328.36505398744     
  -1.96000000000000       -1.88000000000000        3282.43225407557     
  -1.96000000000000       -1.84000000000000        3236.81945412882     
  -1.96000000000000       -1.80000000000000        3191.52665416273     
  -1.96000000000000       -1.76000000000000        3146.55385418863     
  -1.96000000000000       -1.72000000000000        3101.90105421465     
  -1.96000000000000       -1.68000000000000        3057.56825424631     
  -1.96000000000000       -1.64000000000000        3013.55545428701     
  -1.96000000000000       -1.60000000000000        2969.86265433846     
  -1.96000000000000       -1.56000000000000        2926.48985440096     
  -1.96000000000000       -1.52000000000000        2883.43705447372     
  -1.96000000000000       -1.48000000000000        2840.70425455510     
  -1.96000000000000       -1.44000000000000        2798.29145464285     
  -1.96000000000000       -1.40000000000000        2756.19865473434     
  -1.96000000000000       -1.36000000000000        2714.42585482675     
  -1.96000000000000       -1.32000000000000        2672.97305491728     
  -1.96000000000000       -1.28000000000000        2631.84025500327     
  -1.96000000000000       -1.24000000000000        2591.02745508235     
  -1.96000000000000       -1.20000000000000        2550.53465515254     
  -1.96000000000000       -1.16000000000000        2510.36185521233     
  -1.96000000000000       -1.12000000000000        2470.50905526070     
  -1.96000000000000       -1.08000000000000        2430.97625529715     
  -1.96000000000000       -1.04000000000000        2391.76345532166     
  -1.96000000000000       -1.00000000000000        2352.87065533471     
  -1.96000000000000      -0.960000000000000        2314.29785533714     
  -1.96000000000000      -0.920000000000000        2276.04505533016     
  -1.96000000000000      -0.880000000000000        2238.11225531523     
  -1.96000000000000      -0.840000000000000        2200.49945529396     
  -1.96000000000000      -0.800000000000000        2163.20665526804     
  -1.96000000000000      -0.760000000000000        2126.23385523918     
  -1.96000000000000      -0.720000000000000        2089.58105520895     
  -1.96000000000000      -0.680000000000000        2053.24825517881     
  -1.96000000000000      -0.640000000000000        2017.23545514999     
  -1.96000000000000      -0.600000000000000        1981.54265512347     
  -1.96000000000000      -0.560000000000000        1946.16985509995     
  -1.96000000000000      -0.520000000000000        1911.11705507983     
  -1.96000000000000      -0.480000000000000        1876.38425506322     
  -1.96000000000000      -0.440000000000000        1841.97145504994     
  -1.96000000000000      -0.400000000000000        1807.87865503959     
  -1.96000000000000      -0.360000000000000        1774.10585503155     
  -1.96000000000000      -0.320000000000000        1740.65305502504     
  -1.96000000000000      -0.280000000000000        1707.52025501917     
  -1.96000000000000      -0.240000000000000        1674.70745501301     
  -1.96000000000000      -0.200000000000000        1642.21465500563     
  -1.96000000000000      -0.160000000000000        1610.04185499618     
  -1.96000000000000      -0.120000000000000        1578.18905498390     
  -1.96000000000000      -8.000000000000007E-002   1546.65625496821     
  -1.96000000000000      -4.000000000000004E-002   1515.44345494869     
  -1.96000000000000       0.000000000000000E+000   1484.55065492519     
  -1.96000000000000       4.000000000000004E-002   1453.97785489773     
  -1.96000000000000       8.000000000000007E-002   1423.72505486663     
  -1.96000000000000       0.120000000000000        1393.79225483239     
  -1.96000000000000       0.160000000000000        1364.17945479575     
  -1.96000000000000       0.200000000000000        1334.88665475762     
  -1.96000000000000       0.240000000000000        1305.91385471908     
  -1.96000000000000       0.280000000000000        1277.26105468128     
  -1.96000000000000       0.320000000000000        1248.92825464546     
  -1.96000000000000       0.360000000000000        1220.91545461285     
  -1.96000000000000       0.400000000000000        1193.22265458464     
  -1.96000000000000       0.440000000000000        1165.84985456192     
  -1.96000000000000       0.480000000000000        1138.79705454564     
  -1.96000000000000       0.520000000000000        1112.06425453659     
  -1.96000000000000       0.560000000000000        1085.65145453530     
  -1.96000000000000       0.600000000000000        1059.55865454211     
  -1.96000000000000       0.640000000000000        1033.78585455708     
  -1.96000000000000       0.680000000000000        1008.33305458004     
  -1.96000000000000       0.720000000000000        983.200254610555     
  -1.96000000000000       0.760000000000000        958.387454647980     
  -1.96000000000000       0.800000000000000        933.894654691464     
  -1.96000000000000       0.840000000000000        909.721854740008     
  -1.96000000000000       0.880000000000000        885.869054792495     
  -1.96000000000000       0.920000000000000        862.336254847745     
  -1.96000000000000       0.960000000000000        839.123454904560     
  -1.96000000000000        1.00000000000000        816.230654961778     
  -1.96000000000000        1.04000000000000        793.657855018314     
  -1.96000000000000        1.08000000000000        771.405055073198     
  -1.96000000000000        1.12000000000000        749.472255125594     
  -1.96000000000000        1.16000000000000        727.859455174825     
  -1.96000000000000        1.20000000000000        706.566655220355     
  -1.96000000000000        1.24000000000000        685.593855261776     
  -1.96000000000000        1.28000000000000        664.941055298772     
  -1.96000000000000        1.32000000000000        644.608255331044     
  -1.96000000000000        1.36000000000000        624.595455358255     
  -1.96000000000000        1.40000000000000        604.902655379928     
  -1.96000000000000        1.44000000000000        585.529855395350     
  -1.96000000000000        1.48000000000000        566.477055403468     
  -1.96000000000000        1.52000000000000        547.744255402783     
  -1.96000000000000        1.56000000000000        529.331455391266     
  -1.96000000000000        1.60000000000000        511.238655366286     
  -1.96000000000000        1.64000000000000        493.465855324577     
  -1.96000000000000        1.68000000000000        476.013055262266     
  -1.96000000000000        1.72000000000000        458.880255174946     
  -1.96000000000000        1.76000000000000        442.067455057853     
  -1.96000000000000        1.80000000000000        425.574654906136     
  -1.96000000000000        1.84000000000000        409.401854715252     
  -1.96000000000000        1.88000000000000        393.549054481508     
  -1.96000000000000        1.92000000000000        378.016254202760     
  -1.96000000000000        1.96000000000000        362.803453879314     
  -1.96000000000000        2.00000000000000        347.910653515013     
  -1.92000000000000       -2.00000000000000        3242.04089389214     
  -1.92000000000000       -1.96000000000000        3196.70969413603     
  -1.92000000000000       -1.92000000000000        3151.69849429685     
  -1.92000000000000       -1.88000000000000        3107.00729440072     
  -1.92000000000000       -1.84000000000000        3062.63609446727     
  -1.92000000000000       -1.80000000000000        3018.58489451124     
  -1.92000000000000       -1.76000000000000        2974.85369454361     
  -1.92000000000000       -1.72000000000000        2931.44249457243     
  -1.92000000000000       -1.68000000000000        2888.35129460335     
  -1.92000000000000       -1.64000000000000        2845.58009464010     
  -1.92000000000000       -1.60000000000000        2803.12889468477     
  -1.92000000000000       -1.56000000000000        2760.99769473814     
  -1.92000000000000       -1.52000000000000        2719.18649479989     
  -1.92000000000000       -1.48000000000000        2677.69529486886     
  -1.92000000000000       -1.44000000000000        2636.52409494326     
  -1.92000000000000       -1.40000000000000        2595.67289502087     
  -1.92000000000000       -1.36000000000000        2555.14169509926     
  -1.92000000000000       -1.32000000000000        2514.93049517592     
  -1.92000000000000       -1.28000000000000        2475.03929524846     
  -1.92000000000000       -1.24000000000000        2435.46809531473     
  -1.92000000000000       -1.20000000000000        2396.21689537290     
  -1.92000000000000       -1.16000000000000        2357.28569542157     
  -1.92000000000000       -1.12000000000000        2318.67449545979     
  -1.92000000000000       -1.08000000000000        2280.38329548709     
  -1.92000000000000       -1.04000000000000        2242.41209550348     
  -1.92000000000000       -1.00000000000000        2204.76089550939     
  -1.92000000000000      -0.960000000000000        2167.42969550565     
  -1.92000000000000      -0.920000000000000        2130.41849549344     
  -1.92000000000000      -0.880000000000000        2093.72729547414     
  -1.92000000000000      -0.840000000000000        2057.35609544933     
  -1.92000000000000      -0.800000000000000        2021.30489542066     
  -1.92000000000000      -0.760000000000000        1985.57369538978     
  -1.92000000000000      -0.720000000000000        1950.16249535827     
  -1.92000000000000      -0.680000000000000        1915.07129532754     
  -1.92000000000000      -0.640000000000000        1880.30009529882     
  -1.92000000000000      -0.600000000000000        1845.84889527307     
  -1.92000000000000      -0.560000000000000        1811.71769525101     
  -1.92000000000000      -0.520000000000000        1777.90649523304     
  -1.92000000000000      -0.480000000000000        1744.41529521929     
  -1.92000000000000      -0.440000000000000        1711.24409520961     
  -1.92000000000000      -0.400000000000000        1678.39289520359     
  -1.92000000000000      -0.360000000000000        1645.86169520062     
  -1.92000000000000      -0.320000000000000        1613.65049519994     
  -1.92000000000000      -0.280000000000000        1581.75929520064     
  -1.92000000000000      -0.240000000000000        1550.18809520176     
  -1.92000000000000      -0.200000000000000        1518.93689520235     
  -1.92000000000000      -0.160000000000000        1488.00569520149     
  -1.92000000000000      -0.120000000000000        1457.39449519835     
  -1.92000000000000      -8.000000000000007E-002   1427.10329519225     
  -1.92000000000000      -4.000000000000004E-002   1397.13209518267     
  -1.92000000000000       0.000000000000000E+000   1367.48089516931     
  -1.92000000000000       4.000000000000004E-002   1338.14969515206     
  -1.92000000000000       8.000000000000007E-002   1309.13849513105     
  -1.92000000000000       0.120000000000000        1280.44729510663     
  -1.92000000000000       0.160000000000000        1252.07609507933     
  -1.92000000000000       0.200000000000000        1224.02489504987     
  -1.92000000000000       0.240000000000000        1196.29369501913     
  -1.92000000000000       0.280000000000000        1168.88249498808     
  -1.92000000000000       0.320000000000000        1141.79129495777     
  -1.92000000000000       0.360000000000000        1115.02009492926     
  -1.92000000000000       0.400000000000000        1088.56889490359     
  -1.92000000000000       0.440000000000000        1062.43769488172     
  -1.92000000000000       0.480000000000000        1036.62649486452     
  -1.92000000000000       0.520000000000000        1011.13529485270     
  -1.92000000000000       0.560000000000000        985.964094846800     
  -1.92000000000000       0.600000000000000        961.112894847152     
  -1.92000000000000       0.640000000000000        936.581694853898     
  -1.92000000000000       0.680000000000000        912.370494866965     
  -1.92000000000000       0.720000000000000        888.479294886084     
  -1.92000000000000       0.760000000000000        864.908094910803     
  -1.92000000000000       0.800000000000000        841.656894940516     
  -1.92000000000000       0.840000000000000        818.725694974498     
  -1.92000000000000       0.880000000000000        796.114495011936     
  -1.92000000000000       0.920000000000000        773.823295051978     
  -1.92000000000000       0.960000000000000        751.852095093767     
  -1.92000000000000        1.00000000000000        730.200895136483     
  -1.92000000000000        1.04000000000000        708.869695179376     
  -1.92000000000000        1.08000000000000        687.858495221784     
  -1.92000000000000        1.12000000000000        667.167295263152     
  -1.92000000000000        1.16000000000000        646.796095303027     
  -1.92000000000000        1.20000000000000        626.744895341042     
  -1.92000000000000        1.24000000000000        607.013695376881     
  -1.92000000000000        1.28000000000000        587.602495410237     
  -1.92000000000000        1.32000000000000        568.511295440732     
  -1.92000000000000        1.36000000000000        549.740095467854     
  -1.92000000000000        1.40000000000000        531.288895490856     
  -1.92000000000000        1.44000000000000        513.157695508670     
  -1.92000000000000        1.48000000000000        495.346495519815     
  -1.92000000000000        1.52000000000000        477.855295522315     
  -1.92000000000000        1.56000000000000        460.684095513648     
  -1.92000000000000        1.60000000000000        443.832895490721     
  -1.92000000000000        1.64000000000000        427.301695449901     
  -1.92000000000000        1.68000000000000        411.090495387111     
  -1.92000000000000        1.72000000000000        395.199295298011     
  -1.92000000000000        1.76000000000000        379.628095178287     
  -1.92000000000000        1.80000000000000        364.376895024065     
  -1.92000000000000        1.84000000000000        349.445694832475     
  -1.92000000000000        1.88000000000000        334.834494602391     
  -1.92000000000000        1.92000000000000        320.543294335374     
  -1.92000000000000        1.96000000000000        306.572094036825     
  -1.92000000000000        2.00000000000000        292.920893717405     
  -1.88000000000000       -2.00000000000000        3071.25273415461     
  -1.88000000000000       -1.96000000000000        3027.13753442214     
  -1.88000000000000       -1.92000000000000        2983.34233460537     
  -1.88000000000000       -1.88000000000000        2939.86713472873     
  -1.88000000000000       -1.84000000000000        2896.71193481074     
  -1.88000000000000       -1.80000000000000        2853.87673486556     
  -1.88000000000000       -1.76000000000000        2811.36153490395     
  -1.88000000000000       -1.72000000000000        2769.16633493403     
  -1.88000000000000       -1.68000000000000        2727.29113496175     
  -1.88000000000000       -1.64000000000000        2685.73593499128     
  -1.88000000000000       -1.60000000000000        2644.50073502522     
  -1.88000000000000       -1.56000000000000        2603.58553506494     
  -1.88000000000000       -1.52000000000000        2562.99033511073     
  -1.88000000000000       -1.48000000000000        2522.71513516200     
  -1.88000000000000       -1.44000000000000        2482.75993521752     
  -1.88000000000000       -1.40000000000000        2443.12473527559     
  -1.88000000000000       -1.36000000000000        2403.80953533423     
  -1.88000000000000       -1.32000000000000        2364.81433539133     
  -1.88000000000000       -1.28000000000000        2326.13913544484     
  -1.88000000000000       -1.24000000000000        2287.78393549286     
  -1.88000000000000       -1.20000000000000        2249.74873553379     
  -1.88000000000000       -1.16000000000000        2212.03353556639     
  -1.88000000000000       -1.12000000000000        2174.63833558980     
  -1.88000000000000       -1.08000000000000        2137.56313560365     
  -1.88000000000000       -1.04000000000000        2100.80793560794     
  -1.88000000000000       -1.00000000000000        2064.37273560314     
  -1.88000000000000      -0.960000000000000        2028.25753559006     
  -1.88000000000000      -0.920000000000000        1992.46233556981     
  -1.88000000000000      -0.880000000000000        1956.98713554375     
  -1.88000000000000      -0.840000000000000        1921.83193551341     
  -1.88000000000000      -0.800000000000000        1886.99673548038     
  -1.88000000000000      -0.760000000000000        1852.48153544626     
  -1.88000000000000      -0.720000000000000        1818.28633541259     
  -1.88000000000000      -0.680000000000000        1784.41113538073     
  -1.88000000000000      -0.640000000000000        1750.85593535188     
  -1.88000000000000      -0.600000000000000        1717.62073532701     
  -1.88000000000000      -0.560000000000000        1684.70553530678     
  -1.88000000000000      -0.520000000000000        1652.11033529161     
  -1.88000000000000      -0.480000000000000        1619.83513528160     
  -1.88000000000000      -0.440000000000000        1587.87993527661     
  -1.88000000000000      -0.400000000000000        1556.24473527623     
  -1.88000000000000      -0.360000000000000        1524.92953527985     
  -1.88000000000000      -0.320000000000000        1493.93433528666     
  -1.88000000000000      -0.280000000000000        1463.25913529575     
  -1.88000000000000      -0.240000000000000        1432.90393530612     
  -1.88000000000000      -0.200000000000000        1402.86873531678     
  -1.88000000000000      -0.160000000000000        1373.15353532672     
  -1.88000000000000      -0.120000000000000        1343.75833533504     
  -1.88000000000000      -8.000000000000007E-002   1314.68313534097     
  -1.88000000000000      -4.000000000000004E-002   1285.92793534384     
  -1.88000000000000       0.000000000000000E+000   1257.49273534323     
  -1.88000000000000       4.000000000000004E-002   1229.37753533886     
  -1.88000000000000       8.000000000000007E-002   1201.58233533069     
  -1.88000000000000       0.120000000000000        1174.10713531886     
  -1.88000000000000       0.160000000000000        1146.95193530372     
  -1.88000000000000       0.200000000000000        1120.11673528578     
  -1.88000000000000       0.240000000000000        1093.60153526570     
  -1.88000000000000       0.280000000000000        1067.40633524423     
  -1.88000000000000       0.320000000000000        1041.53113522223     
  -1.88000000000000       0.360000000000000        1015.97593520055     
  -1.88000000000000       0.400000000000000        990.740735180053     
  -1.88000000000000       0.440000000000000        965.825535161562     
  -1.88000000000000       0.480000000000000        941.230335145799     
  -1.88000000000000       0.520000000000000        916.955135133381     
  -1.88000000000000       0.560000000000000        892.999935124782     
  -1.88000000000000       0.600000000000000        869.364735120327     
  -1.88000000000000       0.640000000000000        846.049535120172     
  -1.88000000000000       0.680000000000000        823.054335124317     
  -1.88000000000000       0.720000000000000        800.379135132604     
  -1.88000000000000       0.760000000000000        778.023935144742     
  -1.88000000000000       0.800000000000000        755.988735160332     
  -1.88000000000000       0.840000000000000        734.273535178890     
  -1.88000000000000       0.880000000000000        712.878335199889     
  -1.88000000000000       0.920000000000000        691.803135222784     
  -1.88000000000000       0.960000000000000        671.047935247059     
  -1.88000000000000        1.00000000000000        650.612735272241     
  -1.88000000000000        1.04000000000000        630.497535297933     
  -1.88000000000000        1.08000000000000        610.702335323823     
  -1.88000000000000        1.12000000000000        591.227135349683     
  -1.88000000000000        1.16000000000000        572.071935375361     
  -1.88000000000000        1.20000000000000        553.236735400746     
  -1.88000000000000        1.24000000000000        534.721535425727     
  -1.88000000000000        1.28000000000000        516.526335450136     
  -1.88000000000000        1.32000000000000        498.651135473667     
  -1.88000000000000        1.36000000000000        481.095935495799     
  -1.88000000000000        1.40000000000000        463.860735515700     
  -1.88000000000000        1.44000000000000        446.945535532144     
  -1.88000000000000        1.48000000000000        430.350335543422     
  -1.88000000000000        1.52000000000000        414.075135547286     
  -1.88000000000000        1.56000000000000        398.119935540911     
  -1.88000000000000        1.60000000000000        382.484735520919     
  -1.88000000000000        1.64000000000000        367.169535483447     
  -1.88000000000000        1.68000000000000        352.174335424306     
  -1.88000000000000        1.72000000000000        337.499135339245     
  -1.88000000000000        1.76000000000000        323.143935224322     
  -1.88000000000000        1.80000000000000        309.108735076445     
  -1.88000000000000        1.84000000000000        295.393534894066     
  -1.88000000000000        1.88000000000000        281.998334678084     
  -1.88000000000000        1.92000000000000        268.923134432975     
  -1.88000000000000        1.96000000000000        256.167934168168     
  -1.88000000000000        2.00000000000000        243.732733899712     
  -1.84000000000000       -2.00000000000000        2908.53433439230     
  -1.84000000000000       -1.96000000000000        2865.60953468844     
  -1.84000000000000       -1.92000000000000        2823.00473489804     
  -1.84000000000000       -1.88000000000000        2780.71993504392     
  -1.84000000000000       -1.84000000000000        2738.75513514363     